/*--------------------------------*- C++ -*----------------------------------*\
| =========                 |                                                 |
| \\      /  F ield         | OpenFOAM: The Open Source CFD Toolbox           |
|  \\    /   O peration     | Version:  2512                                  |
|   \\  /    A nd           | Website:  www.openfoam.com                      |
|    \\/     M anipulation  |                                                 |
\*---------------------------------------------------------------------------*/
FoamFile
{
    version     2.0;
    format      ascii;
    arch        "LSB;label=32;scalar=64";
    class       volScalarField;
    location    "2978";
    object      div(phi);
}
// * * * * * * * * * * * * * * * * * * * * * * * * * * * * * * * * * * * * * //

dimensions      [0 0 -1 0 0 0 0];

internalField   nonuniform List<scalar> 
66422
(
-1.82808e-08
-3.80688e-08
-4.22545e-08
-4.30283e-08
-4.38663e-08
-4.44829e-08
-4.48638e-08
-4.51126e-08
-4.52789e-08
-4.53808e-08
-4.54302e-08
-4.54337e-08
-4.5395e-08
-4.53164e-08
-4.51979e-08
-4.50408e-08
-4.48433e-08
-4.46068e-08
-4.43286e-08
-4.4011e-08
-4.36505e-08
-4.32501e-08
-4.28058e-08
-4.23214e-08
-4.17922e-08
-4.12228e-08
-4.06078e-08
-3.99526e-08
-3.92512e-08
-3.85095e-08
-3.77209e-08
-3.68923e-08
-3.60162e-08
-3.51002e-08
-3.41364e-08
-3.3133e-08
-3.20814e-08
-3.09906e-08
-2.98515e-08
-2.86738e-08
-2.74477e-08
-2.61836e-08
-2.48712e-08
-2.35217e-08
-2.21243e-08
-2.06906e-08
-1.92094e-08
-1.76932e-08
-1.61299e-08
-1.45329e-08
-1.28896e-08
-1.1214e-08
-9.49308e-09
-7.74128e-09
-5.94542e-09
-4.12036e-09
-2.25256e-09
-3.57414e-10
1.57896e-09
3.5406e-09
5.5418e-09
7.56604e-09
9.6279e-09
1.17104e-08
1.38284e-08
1.59645e-08
1.81338e-08
2.03184e-08
2.25337e-08
2.47614e-08
2.70169e-08
2.92818e-08
3.15717e-08
3.38676e-08
3.61853e-08
3.85058e-08
4.08446e-08
4.31826e-08
4.55354e-08
4.78838e-08
5.02433e-08
5.25945e-08
5.49528e-08
5.72989e-08
5.9648e-08
6.19808e-08
6.43124e-08
6.66236e-08
6.8929e-08
7.12099e-08
7.34804e-08
7.5722e-08
7.79485e-08
8.01418e-08
8.23152e-08
8.44511e-08
8.65621e-08
8.86313e-08
9.06708e-08
9.2664e-08
9.46226e-08
9.65308e-08
9.83994e-08
1.00213e-07
1.01983e-07
1.03694e-07
1.05356e-07
1.06956e-07
1.08501e-07
1.09981e-07
1.11402e-07
1.12754e-07
1.14043e-07
1.1526e-07
1.16409e-07
1.17483e-07
1.18487e-07
1.19412e-07
1.20263e-07
1.21033e-07
1.21726e-07
1.22336e-07
1.22866e-07
1.23311e-07
1.23672e-07
1.23949e-07
1.24139e-07
1.24242e-07
1.24258e-07
1.24186e-07
1.24025e-07
1.23776e-07
1.23436e-07
1.23008e-07
1.22489e-07
1.21882e-07
1.21183e-07
1.20397e-07
1.19518e-07
1.18555e-07
1.17498e-07
1.16357e-07
1.15124e-07
1.13809e-07
1.12402e-07
1.10915e-07
1.09337e-07
1.07683e-07
1.05938e-07
1.0412e-07
1.02213e-07
1.00235e-07
9.81705e-08
9.60383e-08
9.38224e-08
9.15419e-08
8.91803e-08
8.67578e-08
8.4257e-08
8.16993e-08
7.90666e-08
7.63809e-08
7.36236e-08
7.08178e-08
6.79438e-08
6.50258e-08
6.20435e-08
5.90218e-08
5.59398e-08
5.28231e-08
4.96502e-08
4.64474e-08
4.31928e-08
3.99131e-08
3.65859e-08
3.32385e-08
2.98481e-08
2.64422e-08
2.29978e-08
1.95428e-08
1.60538e-08
1.2559e-08
9.0346e-09
5.50904e-09
1.9585e-09
-1.58861e-09
-5.15621e-09
-8.71587e-09
-1.22915e-08
-1.58548e-08
-1.94297e-08
-2.29878e-08
-2.65531e-08
-3.00974e-08
-3.36444e-08
-3.71665e-08
-4.06869e-08
-4.41783e-08
-4.76639e-08
-5.11165e-08
-5.45592e-08
-5.79654e-08
-6.13574e-08
-6.47094e-08
-6.80434e-08
-7.13339e-08
-7.46027e-08
-7.78248e-08
-8.10215e-08
-8.41686e-08
-8.72868e-08
-9.03527e-08
-9.33864e-08
-9.63652e-08
-9.93088e-08
-1.02195e-07
-1.05043e-07
-1.07832e-07
-1.1058e-07
-1.13267e-07
-1.1591e-07
-1.18491e-07
-1.21026e-07
-1.23496e-07
-1.25919e-07
-1.28277e-07
-1.30585e-07
-1.32826e-07
-1.35016e-07
-1.3714e-07
-1.3921e-07
-1.41212e-07
-1.43161e-07
-1.45041e-07
-1.46866e-07
-1.48624e-07
-1.50324e-07
-1.51957e-07
-1.53533e-07
-1.55041e-07
-1.56491e-07
-1.57873e-07
-1.59198e-07
-1.60455e-07
-1.61653e-07
-1.62785e-07
-1.63858e-07
-1.64865e-07
-1.65812e-07
-1.66694e-07
-1.67517e-07
-1.68275e-07
-1.68973e-07
-1.69608e-07
-1.70183e-07
-1.70694e-07
-1.71145e-07
-1.71534e-07
-1.71861e-07
-1.72127e-07
-1.72332e-07
-1.72474e-07
-1.72555e-07
-1.72574e-07
-1.7253e-07
-1.72423e-07
-1.72252e-07
-1.72018e-07
-1.71717e-07
-1.71352e-07
-1.70918e-07
-1.70417e-07
-1.69843e-07
-1.69199e-07
-1.68477e-07
-1.67681e-07
-1.66801e-07
-1.65841e-07
-1.64788e-07
-1.63645e-07
-1.62398e-07
-1.6105e-07
-1.59581e-07
-1.57993e-07
-1.56263e-07
-1.54388e-07
-1.52342e-07
-1.50118e-07
-1.47684e-07
-1.45023e-07
-1.42099e-07
-1.38874e-07
-1.35293e-07
-1.31333e-07
-1.26744e-07
-1.2127e-07
-1.136e-07
-1.01328e-07
-1.02305e-07
-1.55776e-07
-2.03906e-10
-2.68997e-11
1.62876e-09
2.24431e-09
2.40625e-09
2.48731e-09
2.5572e-09
2.59875e-09
2.62391e-09
2.64063e-09
2.65263e-09
2.66149e-09
2.66565e-09
2.6666e-09
2.66194e-09
2.65481e-09
2.64214e-09
2.62842e-09
2.60955e-09
2.59115e-09
2.56788e-09
2.54633e-09
2.51997e-09
2.49635e-09
2.46776e-09
2.44275e-09
2.41246e-09
2.3865e-09
2.3549e-09
2.3283e-09
2.29571e-09
2.26877e-09
2.23546e-09
2.20842e-09
2.17464e-09
2.14777e-09
2.11374e-09
2.08724e-09
2.05321e-09
2.02729e-09
1.99344e-09
1.96828e-09
1.9348e-09
1.91053e-09
1.87761e-09
1.8544e-09
1.82215e-09
1.80013e-09
1.76871e-09
1.74798e-09
1.71753e-09
1.69819e-09
1.66879e-09
1.65093e-09
1.62267e-09
1.60635e-09
1.57927e-09
1.56449e-09
1.53861e-09
1.52534e-09
1.50065e-09
1.48885e-09
1.46528e-09
1.45482e-09
1.43229e-09
1.42302e-09
1.40144e-09
1.3932e-09
1.37242e-09
1.3651e-09
1.345e-09
1.33847e-09
1.31898e-09
1.31312e-09
1.29422e-09
1.289e-09
1.27071e-09
1.26614e-09
1.24857e-09
1.24469e-09
1.22793e-09
1.2249e-09
1.20916e-09
1.20709e-09
1.19252e-09
1.19157e-09
1.17839e-09
1.17868e-09
1.16705e-09
1.1687e-09
1.15876e-09
1.16182e-09
1.15368e-09
1.15818e-09
1.15187e-09
1.15779e-09
1.15331e-09
1.16054e-09
1.15787e-09
1.16633e-09
1.16537e-09
1.17491e-09
1.17555e-09
1.18603e-09
1.18816e-09
1.19938e-09
1.20291e-09
1.21472e-09
1.21948e-09
1.23173e-09
1.23765e-09
1.25016e-09
1.25713e-09
1.26978e-09
1.2777e-09
1.29041e-09
1.2992e-09
1.31182e-09
1.32142e-09
1.33388e-09
1.34425e-09
1.35647e-09
1.3675e-09
1.37941e-09
1.39109e-09
1.40263e-09
1.41488e-09
1.42597e-09
1.43876e-09
1.44934e-09
1.46261e-09
1.4726e-09
1.48631e-09
1.49565e-09
1.50971e-09
1.51839e-09
1.53274e-09
1.54068e-09
1.55524e-09
1.56241e-09
1.57715e-09
1.58345e-09
1.59829e-09
1.60373e-09
1.61861e-09
1.62309e-09
1.63796e-09
1.64148e-09
1.65626e-09
1.65877e-09
1.67337e-09
1.67484e-09
1.68919e-09
1.68959e-09
1.70362e-09
1.70293e-09
1.7166e-09
1.71478e-09
1.72804e-09
1.72513e-09
1.73797e-09
1.73402e-09
1.74645e-09
1.74153e-09
1.75365e-09
1.74789e-09
1.75977e-09
1.75334e-09
1.76511e-09
1.75821e-09
1.77e-09
1.76279e-09
1.77472e-09
1.76739e-09
1.77955e-09
1.77219e-09
1.78462e-09
1.77731e-09
1.79e-09
1.78275e-09
1.79559e-09
1.78833e-09
1.8012e-09
1.79383e-09
1.80653e-09
1.79888e-09
1.81125e-09
1.80317e-09
1.81495e-09
1.80629e-09
1.81734e-09
1.80797e-09
1.8181e-09
1.80792e-09
1.81699e-09
1.80596e-09
1.81388e-09
1.80196e-09
1.80871e-09
1.79588e-09
1.80142e-09
1.78774e-09
1.79206e-09
1.77757e-09
1.78069e-09
1.76544e-09
1.76739e-09
1.75143e-09
1.75222e-09
1.73563e-09
1.73528e-09
1.7181e-09
1.71664e-09
1.69892e-09
1.69636e-09
1.67813e-09
1.6745e-09
1.65579e-09
1.65106e-09
1.63192e-09
1.62611e-09
1.60653e-09
1.59964e-09
1.57964e-09
1.57166e-09
1.55127e-09
1.5422e-09
1.5214e-09
1.51122e-09
1.49002e-09
1.47874e-09
1.45713e-09
1.44476e-09
1.42274e-09
1.40925e-09
1.38685e-09
1.37223e-09
1.34942e-09
1.3337e-09
1.31049e-09
1.29366e-09
1.27006e-09
1.25211e-09
1.22813e-09
1.20911e-09
1.18471e-09
1.1646e-09
1.13983e-09
1.11863e-09
1.09349e-09
1.07121e-09
1.04571e-09
1.02239e-09
9.96489e-10
9.72083e-10
9.45813e-10
9.20349e-10
8.93696e-10
8.67165e-10
8.4012e-10
8.12478e-10
7.84998e-10
7.56243e-10
7.28279e-10
6.98266e-10
6.69735e-10
6.38352e-10
6.09063e-10
5.76106e-10
5.45848e-10
5.10972e-10
4.79391e-10
4.42159e-10
4.08739e-10
3.6846e-10
3.32462e-10
2.88195e-10
2.48614e-10
1.99217e-10
1.55136e-10
9.99451e-11
5.15335e-11
-8.50828e-12
-5.92693e-11
-1.21764e-10
-1.72684e-10
-2.37437e-10
-2.90059e-10
-3.6363e-10
-4.28776e-10
-5.34188e-10
-6.30382e-10
-8.36934e-10
-1.0511e-09
-1.50673e-09
-1.84105e-09
-8.37021e-10
3.88443e-09
-1.97144e-08
-1.25472e-07
1.72053e-09
4.31509e-09
5.3324e-09
5.53538e-09
5.58569e-09
5.64221e-09
5.65435e-09
5.64482e-09
5.62427e-09
5.60128e-09
5.57811e-09
5.55435e-09
5.52861e-09
5.49916e-09
5.46564e-09
5.427e-09
5.38411e-09
5.33603e-09
5.28435e-09
5.22783e-09
5.1684e-09
5.10438e-09
5.03794e-09
4.96693e-09
4.89382e-09
4.81595e-09
4.73614e-09
4.6513e-09
4.5646e-09
4.47259e-09
4.37879e-09
4.2794e-09
4.17827e-09
4.07131e-09
3.96268e-09
3.84796e-09
3.73172e-09
3.60914e-09
3.48519e-09
3.35473e-09
3.22302e-09
3.08461e-09
2.94518e-09
2.79892e-09
2.65178e-09
2.49773e-09
2.34305e-09
2.18133e-09
2.01921e-09
1.85002e-09
1.6807e-09
1.50426e-09
1.32793e-09
1.14449e-09
9.61428e-10
7.71243e-10
5.81718e-10
3.85068e-10
1.89339e-10
-1.34841e-11
-2.15161e-10
-4.23894e-10
-6.31241e-10
-8.45608e-10
-1.05836e-09
-1.27809e-09
-1.49598e-09
-1.72074e-09
-1.94343e-09
-2.17288e-09
-2.39998e-09
-2.63367e-09
-2.86472e-09
-3.10215e-09
-3.33656e-09
-3.57704e-09
-3.81416e-09
-4.05694e-09
-4.29593e-09
-4.54017e-09
-4.78011e-09
-5.02479e-09
-5.26471e-09
-5.50879e-09
-5.74762e-09
-5.99002e-09
-6.22667e-09
-6.46627e-09
-6.69966e-09
-6.93536e-09
-7.1644e-09
-7.39514e-09
-7.61877e-09
-7.84352e-09
-8.06079e-09
-8.27858e-09
-8.48858e-09
-8.69848e-09
-8.90031e-09
-9.10144e-09
-9.29432e-09
-9.48588e-09
-9.669e-09
-9.85024e-09
-1.00228e-08
-1.0193e-08
-1.03544e-08
-1.05128e-08
-1.06623e-08
-1.08081e-08
-1.09451e-08
-1.10778e-08
-1.12015e-08
-1.13204e-08
-1.14303e-08
-1.15348e-08
-1.16304e-08
-1.17198e-08
-1.18004e-08
-1.18743e-08
-1.19394e-08
-1.19973e-08
-1.20465e-08
-1.20879e-08
-1.21208e-08
-1.21453e-08
-1.21615e-08
-1.21689e-08
-1.21681e-08
-1.2158e-08
-1.214e-08
-1.21123e-08
-1.2077e-08
-1.20315e-08
-1.19788e-08
-1.19155e-08
-1.18453e-08
-1.17643e-08
-1.16767e-08
-1.15781e-08
-1.14732e-08
-1.1357e-08
-1.12351e-08
-1.11016e-08
-1.09628e-08
-1.08123e-08
-1.06571e-08
-1.04899e-08
-1.03186e-08
-1.01352e-08
-9.94816e-09
-9.74908e-09
-9.54687e-09
-9.33262e-09
-9.11579e-09
-8.88695e-09
-8.65613e-09
-8.41336e-09
-8.16918e-09
-7.91311e-09
-7.65622e-09
-7.38753e-09
-7.11859e-09
-6.83796e-09
-6.55759e-09
-6.26568e-09
-5.97454e-09
-5.67202e-09
-5.37075e-09
-5.05826e-09
-4.74752e-09
-4.42578e-09
-4.10627e-09
-3.77599e-09
-3.44846e-09
-3.11044e-09
-2.77569e-09
-2.43083e-09
-2.08976e-09
-1.73899e-09
-1.39258e-09
-1.03692e-09
-6.86202e-10
-3.26737e-10
2.72365e-11
3.89412e-10
7.45504e-10
1.10928e-09
1.46643e-09
1.83069e-09
2.18786e-09
2.55156e-09
2.90772e-09
3.26986e-09
3.62403e-09
3.98368e-09
4.33499e-09
4.69125e-09
5.03885e-09
5.39091e-09
5.73401e-09
6.08108e-09
6.41896e-09
6.76031e-09
7.09223e-09
7.42718e-09
7.75251e-09
8.08037e-09
8.39847e-09
8.71861e-09
9.02887e-09
9.3407e-09
9.64253e-09
9.94547e-09
1.02383e-08
1.05319e-08
1.08152e-08
1.10988e-08
1.13722e-08
1.16454e-08
1.19084e-08
1.21707e-08
1.24229e-08
1.2674e-08
1.2915e-08
1.31545e-08
1.3384e-08
1.36116e-08
1.38292e-08
1.40447e-08
1.42503e-08
1.44533e-08
1.46466e-08
1.48371e-08
1.5018e-08
1.51958e-08
1.53641e-08
1.5529e-08
1.56847e-08
1.58367e-08
1.59797e-08
1.61187e-08
1.62491e-08
1.63751e-08
1.64927e-08
1.66058e-08
1.67106e-08
1.68108e-08
1.6903e-08
1.69903e-08
1.70698e-08
1.71443e-08
1.72113e-08
1.7273e-08
1.73275e-08
1.73765e-08
1.74186e-08
1.7455e-08
1.74847e-08
1.75085e-08
1.75258e-08
1.75371e-08
1.75421e-08
1.75407e-08
1.75332e-08
1.75191e-08
1.7499e-08
1.74719e-08
1.74389e-08
1.73984e-08
1.7352e-08
1.72975e-08
1.72368e-08
1.71675e-08
1.70915e-08
1.70059e-08
1.69131e-08
1.68095e-08
1.66979e-08
1.65744e-08
1.64426e-08
1.62985e-08
1.61467e-08
1.59833e-08
1.58131e-08
1.5631e-08
1.54413e-08
1.52359e-08
1.50175e-08
1.47722e-08
1.45048e-08
1.41849e-08
1.38231e-08
1.32905e-08
1.27151e-08
1.20989e-08
1.28308e-08
1.81886e-08
-2.16736e-09
-1.30783e-07
8.04809e-10
2.37575e-09
2.70543e-09
2.62837e-09
2.60811e-09
2.58545e-09
2.53489e-09
2.47593e-09
2.41987e-09
2.37029e-09
2.3283e-09
2.29141e-09
2.25712e-09
2.22332e-09
2.18861e-09
2.15268e-09
2.11507e-09
2.07635e-09
2.03627e-09
1.99574e-09
1.95429e-09
1.91294e-09
1.87085e-09
1.82917e-09
1.78672e-09
1.74472e-09
1.70174e-09
1.65918e-09
1.61534e-09
1.57181e-09
1.52669e-09
1.48179e-09
1.43501e-09
1.38837e-09
1.33957e-09
1.29086e-09
1.23975e-09
1.18869e-09
1.13502e-09
1.08138e-09
1.02498e-09
9.68609e-10
9.09288e-10
8.50054e-10
7.87755e-10
7.25577e-10
6.60229e-10
5.95094e-10
5.26703e-10
4.58623e-10
3.87202e-10
3.16217e-10
2.41843e-10
1.67997e-10
9.07254e-11
1.40865e-11
-6.6011e-11
-1.45375e-10
-2.28278e-10
-3.10343e-10
-3.95983e-10
-4.80741e-10
-5.69142e-10
-6.56615e-10
-7.47782e-10
-8.37962e-10
-9.31903e-10
-1.02484e-09
-1.12158e-09
-1.21723e-09
-1.31666e-09
-1.41495e-09
-1.51696e-09
-1.6177e-09
-1.72208e-09
-1.82498e-09
-1.93137e-09
-2.03608e-09
-2.14401e-09
-2.25001e-09
-2.35894e-09
-2.46562e-09
-2.57494e-09
-2.68168e-09
-2.7907e-09
-2.89682e-09
-3.00481e-09
-3.10961e-09
-3.21595e-09
-3.31877e-09
-3.42279e-09
-3.52304e-09
-3.62414e-09
-3.72129e-09
-3.81898e-09
-3.91255e-09
-4.00635e-09
-4.09594e-09
-4.18551e-09
-4.27076e-09
-4.35575e-09
-4.4364e-09
-4.51653e-09
-4.59233e-09
-4.66735e-09
-4.73803e-09
-4.80774e-09
-4.87311e-09
-4.93728e-09
-4.99715e-09
-5.05556e-09
-5.10972e-09
-5.16218e-09
-5.21042e-09
-5.2567e-09
-5.29884e-09
-5.33877e-09
-5.37458e-09
-5.40791e-09
-5.43725e-09
-5.4638e-09
-5.48645e-09
-5.50608e-09
-5.52189e-09
-5.53443e-09
-5.54326e-09
-5.54853e-09
-5.55027e-09
-5.54822e-09
-5.54276e-09
-5.53329e-09
-5.52057e-09
-5.50363e-09
-5.48363e-09
-5.45918e-09
-5.43189e-09
-5.39995e-09
-5.36538e-09
-5.326e-09
-5.28419e-09
-5.23744e-09
-5.18847e-09
-5.13442e-09
-5.07841e-09
-5.01718e-09
-4.95426e-09
-4.88603e-09
-4.81635e-09
-4.74128e-09
-4.66507e-09
-4.58338e-09
-4.50082e-09
-4.41279e-09
-4.32415e-09
-4.22999e-09
-4.13556e-09
-4.03558e-09
-3.9356e-09
-3.83008e-09
-3.72482e-09
-3.614e-09
-3.5037e-09
-3.38783e-09
-3.27267e-09
-3.15193e-09
-3.03209e-09
-2.90664e-09
-2.78228e-09
-2.65225e-09
-2.52347e-09
-2.389e-09
-2.25593e-09
-2.11719e-09
-1.98001e-09
-1.83721e-09
-1.69614e-09
-1.54956e-09
-1.40492e-09
-1.25493e-09
-1.10714e-09
-9.54172e-10
-8.03707e-10
-6.48299e-10
-4.95689e-10
-3.38427e-10
-1.8427e-10
-2.57403e-11
1.29374e-10
2.88547e-10
4.44027e-10
6.03278e-10
7.58577e-10
9.1738e-10
1.07199e-09
1.22983e-09
1.38332e-09
1.5398e-09
1.69177e-09
1.84651e-09
1.99661e-09
2.14926e-09
2.2972e-09
2.44748e-09
2.59298e-09
2.7406e-09
2.88337e-09
3.02812e-09
3.16796e-09
3.30953e-09
3.44618e-09
3.5844e-09
3.71764e-09
3.85224e-09
3.98186e-09
4.11262e-09
4.23841e-09
4.36512e-09
4.48687e-09
4.60934e-09
4.72686e-09
4.84488e-09
4.95798e-09
5.07139e-09
5.17989e-09
5.28852e-09
5.39231e-09
5.49599e-09
5.5949e-09
5.69351e-09
5.78742e-09
5.88089e-09
5.96969e-09
6.05788e-09
6.14151e-09
6.22436e-09
6.30272e-09
6.38017e-09
6.45325e-09
6.52522e-09
6.59297e-09
6.65948e-09
6.72185e-09
6.78286e-09
6.83988e-09
6.89539e-09
6.94703e-09
6.99706e-09
7.04331e-09
7.08786e-09
7.12877e-09
7.16786e-09
7.20346e-09
7.23713e-09
7.26743e-09
7.29571e-09
7.32077e-09
7.34371e-09
7.36359e-09
7.38126e-09
7.39599e-09
7.40846e-09
7.41812e-09
7.42542e-09
7.43003e-09
7.43221e-09
7.43182e-09
7.42884e-09
7.42337e-09
7.41519e-09
7.40453e-09
7.39099e-09
7.37493e-09
7.35574e-09
7.33393e-09
7.3086e-09
7.28038e-09
7.24817e-09
7.21273e-09
7.17289e-09
7.12979e-09
7.08259e-09
7.03326e-09
6.98152e-09
6.93024e-09
6.87887e-09
6.83006e-09
6.78123e-09
6.73432e-09
6.68191e-09
6.62798e-09
6.55258e-09
6.47068e-09
6.31705e-09
6.10922e-09
5.76804e-09
5.37047e-09
6.66607e-09
1.40774e-08
-7.37077e-09
-1.50067e-07
7.42716e-10
1.95975e-09
2.23697e-09
2.15863e-09
2.15672e-09
2.11426e-09
2.05163e-09
1.98438e-09
1.9216e-09
1.86895e-09
1.82503e-09
1.78758e-09
1.75317e-09
1.71967e-09
1.68557e-09
1.65038e-09
1.61403e-09
1.57663e-09
1.5387e-09
1.50039e-09
1.46227e-09
1.42427e-09
1.38695e-09
1.34991e-09
1.31371e-09
1.27775e-09
1.2426e-09
1.20747e-09
1.17304e-09
1.13837e-09
1.10421e-09
1.06959e-09
1.03536e-09
1.0004e-09
9.65692e-10
9.30053e-10
8.94589e-10
8.57983e-10
8.21491e-10
7.83715e-10
7.45966e-10
7.06801e-10
6.67665e-10
6.26985e-10
5.86327e-10
5.4404e-10
5.01774e-10
4.57819e-10
4.13936e-10
3.6829e-10
3.22767e-10
2.75439e-10
2.28291e-10
1.79295e-10
1.30526e-10
7.98759e-11
2.94917e-11
-2.28184e-11
-7.48357e-11
-1.28844e-10
-1.82571e-10
-2.3835e-10
-2.93869e-10
-3.51512e-10
-4.0893e-10
-4.68575e-10
-5.28029e-10
-5.89792e-10
-6.51387e-10
-7.1535e-10
-7.79118e-10
-8.45294e-10
-9.11235e-10
-9.79538e-10
-1.04754e-09
-1.1178e-09
-1.18761e-09
-1.25951e-09
-1.33076e-09
-1.4039e-09
-1.47614e-09
-1.55004e-09
-1.62273e-09
-1.69678e-09
-1.76936e-09
-1.84297e-09
-1.91482e-09
-1.98742e-09
-2.05799e-09
-2.12901e-09
-2.19779e-09
-2.26673e-09
-2.33321e-09
-2.39965e-09
-2.46349e-09
-2.52711e-09
-2.58799e-09
-2.64848e-09
-2.70618e-09
-2.76334e-09
-2.81769e-09
-2.87138e-09
-2.92222e-09
-2.97232e-09
-3.0196e-09
-3.06601e-09
-3.10963e-09
-3.15227e-09
-3.19215e-09
-3.23095e-09
-3.26701e-09
-3.30187e-09
-3.33406e-09
-3.36489e-09
-3.39308e-09
-3.4198e-09
-3.44389e-09
-3.46637e-09
-3.48626e-09
-3.50442e-09
-3.52e-09
-3.53371e-09
-3.54489e-09
-3.55406e-09
-3.56077e-09
-3.56527e-09
-3.56741e-09
-3.56722e-09
-3.56471e-09
-3.55977e-09
-3.55258e-09
-3.54284e-09
-3.53094e-09
-3.51638e-09
-3.49978e-09
-3.48039e-09
-3.45907e-09
-3.4349e-09
-3.4089e-09
-3.37997e-09
-3.34934e-09
-3.31569e-09
-3.28053e-09
-3.24225e-09
-3.20258e-09
-3.15979e-09
-3.11574e-09
-3.06854e-09
-3.02024e-09
-2.96878e-09
-2.9164e-09
-2.86084e-09
-2.80453e-09
-2.74506e-09
-2.68502e-09
-2.62181e-09
-2.55823e-09
-2.49146e-09
-2.42451e-09
-2.35436e-09
-2.28414e-09
-2.21072e-09
-2.13736e-09
-2.06076e-09
-1.98428e-09
-1.90452e-09
-1.82493e-09
-1.742e-09
-1.65927e-09
-1.57314e-09
-1.48724e-09
-1.39789e-09
-1.30882e-09
-1.21625e-09
-1.12404e-09
-1.02837e-09
-9.33173e-10
-8.34564e-10
-7.36597e-10
-6.35368e-10
-5.34924e-10
-4.31426e-10
-3.28954e-10
-2.23623e-10
-1.19586e-10
-1.29176e-11
9.21965e-11
1.99678e-10
3.05359e-10
4.13158e-10
5.18948e-10
6.26607e-10
7.32047e-10
8.39181e-10
9.43894e-10
1.05015e-09
1.15383e-09
1.2589e-09
1.36128e-09
1.46492e-09
1.5658e-09
1.6678e-09
1.767e-09
1.86718e-09
1.96453e-09
2.06273e-09
2.15807e-09
2.25418e-09
2.34738e-09
2.44123e-09
2.53213e-09
2.62359e-09
2.7121e-09
2.80103e-09
2.88699e-09
2.97325e-09
3.05655e-09
3.14002e-09
3.22051e-09
3.30106e-09
3.37864e-09
3.45616e-09
3.53069e-09
3.60504e-09
3.67644e-09
3.74755e-09
3.81571e-09
3.88348e-09
3.94831e-09
4.01264e-09
4.07409e-09
4.13494e-09
4.19292e-09
4.25022e-09
4.3047e-09
4.35842e-09
4.40932e-09
4.45942e-09
4.50678e-09
4.55321e-09
4.59695e-09
4.63973e-09
4.67988e-09
4.71896e-09
4.75549e-09
4.79094e-09
4.82385e-09
4.85561e-09
4.88493e-09
4.91305e-09
4.9388e-09
4.96327e-09
4.98547e-09
5.00635e-09
5.02502e-09
5.04238e-09
5.0576e-09
5.07149e-09
5.08331e-09
5.0938e-09
5.10235e-09
5.10953e-09
5.11486e-09
5.11884e-09
5.12107e-09
5.1219e-09
5.12108e-09
5.11883e-09
5.11497e-09
5.10966e-09
5.10273e-09
5.09431e-09
5.08422e-09
5.0725e-09
5.05897e-09
5.0436e-09
5.02621e-09
5.00671e-09
4.98512e-09
4.96166e-09
4.93697e-09
4.9119e-09
4.88816e-09
4.86713e-09
4.85076e-09
4.83917e-09
4.83358e-09
4.83034e-09
4.83175e-09
4.82647e-09
4.82082e-09
4.79058e-09
4.73853e-09
4.57561e-09
4.37378e-09
4.15085e-09
5.52574e-09
1.33983e-08
-7.47431e-09
-1.66429e-07
7.73378e-10
1.9456e-09
2.18146e-09
2.15404e-09
2.14239e-09
2.09727e-09
2.03243e-09
1.96087e-09
1.89576e-09
1.84078e-09
1.7957e-09
1.75697e-09
1.7217e-09
1.68713e-09
1.65211e-09
1.61581e-09
1.57838e-09
1.53989e-09
1.5009e-09
1.46172e-09
1.42275e-09
1.38429e-09
1.34647e-09
1.3095e-09
1.27328e-09
1.23794e-09
1.20326e-09
1.16936e-09
1.13589e-09
1.10302e-09
1.07035e-09
1.03808e-09
1.00579e-09
9.73769e-10
9.41507e-10
9.09342e-10
8.76791e-10
8.44238e-10
8.11127e-10
7.77914e-10
7.44021e-10
7.09999e-10
6.75167e-10
6.40146e-10
6.04264e-10
5.68157e-10
5.31128e-10
4.93897e-10
4.55677e-10
4.17279e-10
3.77869e-10
3.38262e-10
2.97664e-10
2.5689e-10
2.15077e-10
1.73107e-10
1.30073e-10
8.68676e-11
4.25644e-11
-1.93395e-12
-4.76222e-11
-9.35463e-11
-1.40729e-10
-1.88201e-10
-2.37074e-10
-2.86302e-10
-3.36996e-10
-3.88142e-10
-4.40842e-10
-4.94008e-10
-5.4882e-10
-6.04092e-10
-6.61e-10
-7.18343e-10
-7.77265e-10
-8.36532e-10
-8.97252e-10
-9.5816e-10
-1.02033e-09
-1.08247e-09
-1.14568e-09
-1.20856e-09
-1.27223e-09
-1.33532e-09
-1.39891e-09
-1.4616e-09
-1.52453e-09
-1.58625e-09
-1.64794e-09
-1.70818e-09
-1.76814e-09
-1.82644e-09
-1.88421e-09
-1.94016e-09
-1.99543e-09
-2.04873e-09
-2.10123e-09
-2.15168e-09
-2.2012e-09
-2.24863e-09
-2.29508e-09
-2.33939e-09
-2.38268e-09
-2.42382e-09
-2.4639e-09
-2.50184e-09
-2.53868e-09
-2.5734e-09
-2.60698e-09
-2.63844e-09
-2.66871e-09
-2.69689e-09
-2.72382e-09
-2.74866e-09
-2.77218e-09
-2.79362e-09
-2.81367e-09
-2.83163e-09
-2.84814e-09
-2.86255e-09
-2.87541e-09
-2.8862e-09
-2.89535e-09
-2.90243e-09
-2.90781e-09
-2.91113e-09
-2.91264e-09
-2.91213e-09
-2.90975e-09
-2.90536e-09
-2.89905e-09
-2.89076e-09
-2.8805e-09
-2.86831e-09
-2.85407e-09
-2.83797e-09
-2.81979e-09
-2.79981e-09
-2.77769e-09
-2.75385e-09
-2.72786e-09
-2.70022e-09
-2.67042e-09
-2.63902e-09
-2.60544e-09
-2.5704e-09
-2.53319e-09
-2.49458e-09
-2.45384e-09
-2.4118e-09
-2.36764e-09
-2.32234e-09
-2.27493e-09
-2.2265e-09
-2.176e-09
-2.1246e-09
-2.07118e-09
-2.01694e-09
-1.96072e-09
-1.9038e-09
-1.84486e-09
-1.78529e-09
-1.72371e-09
-1.66152e-09
-1.59726e-09
-1.53239e-09
-1.4654e-09
-1.39781e-09
-1.32799e-09
-1.25755e-09
-1.18479e-09
-1.11142e-09
-1.03569e-09
-9.5931e-10
-8.80594e-10
-8.01284e-10
-7.19639e-10
-6.37536e-10
-5.53188e-10
-4.68505e-10
-3.81741e-10
-2.94854e-10
-2.06065e-10
-1.1738e-10
-2.70475e-11
6.29623e-11
1.5438e-10
2.452e-10
3.37206e-10
4.28359e-10
5.20484e-10
6.11542e-10
7.03366e-10
7.93948e-10
8.85145e-10
9.74939e-10
1.06518e-09
1.15391e-09
1.243e-09
1.33046e-09
1.41817e-09
1.50422e-09
1.59043e-09
1.6749e-09
1.75946e-09
1.84223e-09
1.92503e-09
2.006e-09
2.08697e-09
2.16603e-09
2.245e-09
2.32204e-09
2.39892e-09
2.47386e-09
2.54853e-09
2.62126e-09
2.69363e-09
2.76401e-09
2.83398e-09
2.90192e-09
2.96939e-09
3.03479e-09
3.09965e-09
3.16241e-09
3.22457e-09
3.28462e-09
3.34399e-09
3.40126e-09
3.45779e-09
3.51219e-09
3.56578e-09
3.61728e-09
3.66788e-09
3.71642e-09
3.76402e-09
3.80953e-09
3.8541e-09
3.89658e-09
3.93806e-09
3.97747e-09
4.01588e-09
4.05221e-09
4.08749e-09
4.12076e-09
4.15296e-09
4.18312e-09
4.21221e-09
4.23931e-09
4.2653e-09
4.28933e-09
4.31226e-09
4.33326e-09
4.35312e-09
4.37112e-09
4.388e-09
4.40306e-09
4.417e-09
4.42919e-09
4.44032e-09
4.44972e-09
4.4581e-09
4.46488e-09
4.47065e-09
4.4749e-09
4.47819e-09
4.48001e-09
4.48093e-09
4.48044e-09
4.47906e-09
4.47632e-09
4.47272e-09
4.46774e-09
4.46192e-09
4.45464e-09
4.44643e-09
4.43664e-09
4.42573e-09
4.41315e-09
4.39949e-09
4.38464e-09
4.36975e-09
4.35567e-09
4.34434e-09
4.33758e-09
4.33671e-09
4.34324e-09
4.35523e-09
4.37434e-09
4.39346e-09
4.41555e-09
4.42637e-09
4.43426e-09
4.38913e-09
4.30023e-09
4.12644e-09
3.84787e-09
5.56863e-09
1.48078e-08
-8.53207e-09
-1.8094e-07
8.44805e-10
1.90273e-09
2.07058e-09
2.0641e-09
2.0304e-09
1.98742e-09
1.91626e-09
1.84079e-09
1.77241e-09
1.7149e-09
1.66731e-09
1.62675e-09
1.58954e-09
1.55346e-09
1.51678e-09
1.47914e-09
1.4403e-09
1.40073e-09
1.36071e-09
1.32083e-09
1.28139e-09
1.24275e-09
1.20511e-09
1.16858e-09
1.13322e-09
1.09898e-09
1.06585e-09
1.03366e-09
1.0024e-09
9.71853e-10
9.42019e-10
9.12662e-10
8.83831e-10
8.55227e-10
8.27013e-10
7.9881e-10
7.70819e-10
7.42718e-10
7.14724e-10
6.86451e-10
6.58189e-10
6.29549e-10
6.00843e-10
5.71671e-10
5.4239e-10
5.12576e-10
4.82621e-10
4.52091e-10
4.21408e-10
3.90116e-10
3.58675e-10
3.26609e-10
2.94395e-10
2.6152e-10
2.28491e-10
1.94772e-10
1.60915e-10
1.2631e-10
9.14972e-11
5.58676e-11
1.99974e-11
-1.67862e-11
-5.38984e-11
-9.20569e-11
-1.30621e-10
-1.70359e-10
-2.10605e-10
-2.52118e-10
-2.94255e-10
-3.37738e-10
-3.81889e-10
-4.27441e-10
-4.73642e-10
-5.2126e-10
-5.69489e-10
-6.19033e-10
-6.69061e-10
-7.20279e-10
-7.71785e-10
-8.24287e-10
-8.76854e-10
-9.30158e-10
-9.83251e-10
-1.03682e-09
-1.08987e-09
-1.14311e-09
-1.19556e-09
-1.24794e-09
-1.29926e-09
-1.35023e-09
-1.39993e-09
-1.44907e-09
-1.49673e-09
-1.5437e-09
-1.58906e-09
-1.63357e-09
-1.67637e-09
-1.71827e-09
-1.7584e-09
-1.79755e-09
-1.83492e-09
-1.87133e-09
-1.90595e-09
-1.93953e-09
-1.9714e-09
-2.00224e-09
-2.03136e-09
-2.05947e-09
-2.08586e-09
-2.11126e-09
-2.13495e-09
-2.15763e-09
-2.17862e-09
-2.19857e-09
-2.21686e-09
-2.23404e-09
-2.24958e-09
-2.26397e-09
-2.27671e-09
-2.28824e-09
-2.29813e-09
-2.30677e-09
-2.31376e-09
-2.31944e-09
-2.32347e-09
-2.32614e-09
-2.32718e-09
-2.3268e-09
-2.32481e-09
-2.32134e-09
-2.31629e-09
-2.30974e-09
-2.30162e-09
-2.29197e-09
-2.28078e-09
-2.26802e-09
-2.25377e-09
-2.23794e-09
-2.22068e-09
-2.20179e-09
-2.18152e-09
-2.15963e-09
-2.13641e-09
-2.11158e-09
-2.08546e-09
-2.05776e-09
-2.02884e-09
-1.99835e-09
-1.96672e-09
-1.93353e-09
-1.89934e-09
-1.86359e-09
-1.82695e-09
-1.78876e-09
-1.7498e-09
-1.70932e-09
-1.66816e-09
-1.62552e-09
-1.58222e-09
-1.53749e-09
-1.49213e-09
-1.44529e-09
-1.39788e-09
-1.34891e-09
-1.29936e-09
-1.24816e-09
-1.19632e-09
-1.14276e-09
-1.08848e-09
-1.03238e-09
-9.75481e-10
-9.16695e-10
-8.5709e-10
-7.95487e-10
-7.33069e-10
-6.68668e-10
-6.0351e-10
-5.36408e-10
-4.68629e-10
-3.99049e-10
-3.28944e-10
-2.57184e-10
-1.8512e-10
-1.11592e-10
-3.79932e-11
3.68242e-11
1.11493e-10
1.87157e-10
2.62395e-10
3.38433e-10
4.13849e-10
4.89833e-10
5.65014e-10
6.40629e-10
7.15273e-10
7.90188e-10
8.64033e-10
9.38054e-10
1.01091e-09
1.08385e-09
1.15556e-09
1.22732e-09
1.29776e-09
1.36822e-09
1.43731e-09
1.50638e-09
1.57406e-09
1.64165e-09
1.70784e-09
1.77388e-09
1.8385e-09
1.90292e-09
1.96588e-09
2.02861e-09
2.08984e-09
2.15079e-09
2.21021e-09
2.26929e-09
2.32681e-09
2.38394e-09
2.43948e-09
2.49457e-09
2.54806e-09
2.60104e-09
2.65239e-09
2.70319e-09
2.75234e-09
2.8009e-09
2.84779e-09
2.89402e-09
2.93861e-09
2.98249e-09
3.0247e-09
3.06619e-09
3.10601e-09
3.14505e-09
3.18243e-09
3.21902e-09
3.25396e-09
3.28807e-09
3.32053e-09
3.35213e-09
3.38212e-09
3.41124e-09
3.43872e-09
3.46533e-09
3.49034e-09
3.51445e-09
3.53697e-09
3.55861e-09
3.57866e-09
3.59785e-09
3.61547e-09
3.63223e-09
3.64748e-09
3.66188e-09
3.67485e-09
3.68699e-09
3.69774e-09
3.70773e-09
3.71642e-09
3.7244e-09
3.73115e-09
3.73727e-09
3.74224e-09
3.74664e-09
3.74997e-09
3.75281e-09
3.75462e-09
3.75602e-09
3.75646e-09
3.7565e-09
3.75564e-09
3.75434e-09
3.75213e-09
3.74941e-09
3.74569e-09
3.74141e-09
3.73637e-09
3.73133e-09
3.727e-09
3.72478e-09
3.7267e-09
3.73435e-09
3.7501e-09
3.7733e-09
3.80552e-09
3.84182e-09
3.88459e-09
3.923e-09
3.96485e-09
3.98817e-09
3.9904e-09
3.91578e-09
3.80997e-09
3.66108e-09
5.40525e-09
1.50765e-08
-8.29258e-09
-1.95851e-07
9.07542e-10
1.8161e-09
1.99674e-09
1.96469e-09
1.93617e-09
1.88723e-09
1.81287e-09
1.73539e-09
1.66538e-09
1.60592e-09
1.55684e-09
1.51447e-09
1.47584e-09
1.43807e-09
1.40002e-09
1.36082e-09
1.32072e-09
1.27984e-09
1.23885e-09
1.19807e-09
1.15808e-09
1.11908e-09
1.08144e-09
1.04515e-09
1.01036e-09
9.76989e-10
9.4501e-10
9.14287e-10
8.84728e-10
8.56211e-10
8.28614e-10
8.01833e-10
7.75704e-10
7.50176e-10
7.25109e-10
7.0046e-10
6.76071e-10
6.5196e-10
6.27963e-10
6.04108e-10
5.80236e-10
5.56426e-10
5.3249e-10
5.08534e-10
4.84392e-10
4.60179e-10
4.35702e-10
4.11142e-10
3.86286e-10
3.61317e-10
3.36013e-10
3.10622e-10
2.84847e-10
2.58954e-10
2.32683e-10
2.06252e-10
1.79374e-10
1.52326e-10
1.24775e-10
9.69358e-11
6.85006e-11
3.97103e-11
1.01969e-11
-1.9784e-11
-5.06444e-11
-8.20917e-11
-1.14535e-10
-1.47693e-10
-1.81977e-10
-2.1705e-10
-2.53339e-10
-2.90474e-10
-3.28852e-10
-3.6804e-10
-4.08458e-10
-4.49615e-10
-4.91874e-10
-5.34739e-10
-5.78536e-10
-6.22728e-10
-6.67638e-10
-7.12666e-10
-7.58153e-10
-8.03492e-10
-8.49003e-10
-8.94079e-10
-9.39049e-10
-9.83301e-10
-1.02721e-09
-1.07015e-09
-1.11252e-09
-1.15373e-09
-1.19421e-09
-1.23333e-09
-1.27164e-09
-1.30849e-09
-1.3444e-09
-1.37885e-09
-1.4123e-09
-1.44423e-09
-1.47521e-09
-1.50466e-09
-1.53316e-09
-1.56015e-09
-1.58622e-09
-1.61083e-09
-1.63452e-09
-1.65682e-09
-1.67823e-09
-1.69824e-09
-1.71739e-09
-1.73519e-09
-1.75211e-09
-1.76769e-09
-1.78241e-09
-1.79579e-09
-1.80829e-09
-1.81946e-09
-1.82968e-09
-1.83861e-09
-1.84658e-09
-1.85321e-09
-1.85886e-09
-1.86318e-09
-1.86648e-09
-1.86844e-09
-1.86938e-09
-1.86896e-09
-1.86748e-09
-1.86467e-09
-1.86077e-09
-1.85558e-09
-1.84924e-09
-1.84164e-09
-1.8329e-09
-1.82289e-09
-1.81173e-09
-1.79936e-09
-1.78583e-09
-1.7711e-09
-1.75523e-09
-1.73818e-09
-1.71998e-09
-1.7007e-09
-1.68024e-09
-1.65875e-09
-1.63609e-09
-1.61248e-09
-1.58775e-09
-1.56211e-09
-1.53538e-09
-1.50781e-09
-1.47922e-09
-1.44985e-09
-1.41948e-09
-1.38841e-09
-1.35637e-09
-1.3237e-09
-1.29004e-09
-1.25578e-09
-1.22053e-09
-1.18466e-09
-1.14774e-09
-1.11018e-09
-1.07146e-09
-1.03205e-09
-9.91354e-10
-9.49897e-10
-9.07008e-10
-8.63237e-10
-8.17945e-10
-7.71688e-10
-7.23802e-10
-6.74901e-10
-6.24322e-10
-5.72712e-10
-5.1946e-10
-4.65235e-10
-4.09417e-10
-3.5276e-10
-2.94637e-10
-2.35849e-10
-1.75758e-10
-1.15247e-10
-5.36206e-11
8.18979e-12
7.08736e-11
1.33514e-10
1.96811e-10
2.59857e-10
3.23338e-10
3.86394e-10
4.49712e-10
5.12443e-10
5.75303e-10
6.37428e-10
6.99617e-10
7.60969e-10
8.22296e-10
8.82726e-10
9.43089e-10
1.00251e-09
1.06182e-09
1.12015e-09
1.17835e-09
1.23553e-09
1.29257e-09
1.34856e-09
1.40439e-09
1.45915e-09
1.51369e-09
1.56716e-09
1.62039e-09
1.67253e-09
1.72435e-09
1.77507e-09
1.82548e-09
1.87473e-09
1.92361e-09
1.97131e-09
2.01862e-09
2.06471e-09
2.11038e-09
2.15479e-09
2.19875e-09
2.24144e-09
2.28363e-09
2.32454e-09
2.36489e-09
2.40397e-09
2.44248e-09
2.47964e-09
2.51626e-09
2.55152e-09
2.58618e-09
2.61949e-09
2.65218e-09
2.68354e-09
2.71423e-09
2.74359e-09
2.7723e-09
2.79964e-09
2.82633e-09
2.85168e-09
2.87634e-09
2.89966e-09
2.92231e-09
2.94363e-09
2.96426e-09
2.98357e-09
3.00221e-09
3.01956e-09
3.03625e-09
3.05168e-09
3.06646e-09
3.08002e-09
3.09301e-09
3.1048e-09
3.11607e-09
3.12625e-09
3.13596e-09
3.14465e-09
3.15297e-09
3.16036e-09
3.16745e-09