/*--------------------------------*- C++ -*----------------------------------*\
| =========                 |                                                 |
| \\      /  F ield         | OpenFOAM: The Open Source CFD Toolbox           |
|  \\    /   O peration     | Version:  2512                                  |
|   \\  /    A nd           | Website:  www.openfoam.com                      |
|    \\/     M anipulation  |                                                 |
\*---------------------------------------------------------------------------*/
FoamFile
{
    version     2.0;
    format      ascii;
    arch        "LSB;label=32;scalar=64";
    class       volVectorField;
    location    "2978";
    object      momentError;
}
// * * * * * * * * * * * * * * * * * * * * * * * * * * * * * * * * * * * * * //

dimensions      [0 1 -2 0 0 0 0];

internalField   nonuniform List<vector> 
66422
(
(-1.15363e-09 1.02244e-08 0)
(1.2877e-09 1.89388e-08 0)
(4.45984e-09 2.06337e-08 0)
(4.80239e-09 2.08492e-08 0)
(4.42778e-09 2.11499e-08 0)
(3.93009e-09 2.13907e-08 0)
(3.37997e-09 2.15455e-08 0)
(2.79565e-09 2.16416e-08 0)
(2.18289e-09 2.16944e-08 0)
(1.53878e-09 2.17131e-08 0)
(8.58435e-10 2.17042e-08 0)
(1.3764e-10 2.16719e-08 0)
(-6.26885e-10 2.16189e-08 0)
(-1.43696e-09 2.15466e-08 0)
(-2.29338e-09 2.14556e-08 0)
(-3.19635e-09 2.13461e-08 0)
(-4.14549e-09 2.12182e-08 0)
(-5.14039e-09 2.10715e-08 0)
(-6.18045e-09 2.0906e-08 0)
(-7.26487e-09 2.07214e-08 0)
(-8.39304e-09 2.05174e-08 0)
(-9.56429e-09 2.02938e-08 0)
(-1.0778e-08 2.00504e-08 0)
(-1.20335e-08 1.97868e-08 0)
(-1.33301e-08 1.95029e-08 0)
(-1.46672e-08 1.91984e-08 0)
(-1.60443e-08 1.88731e-08 0)
(-1.74606e-08 1.85268e-08 0)
(-1.89156e-08 1.81593e-08 0)
(-2.04086e-08 1.77704e-08 0)
(-2.1939e-08 1.73599e-08 0)
(-2.35061e-08 1.69276e-08 0)
(-2.51093e-08 1.64735e-08 0)
(-2.67478e-08 1.59974e-08 0)
(-2.84211e-08 1.54992e-08 0)
(-3.01283e-08 1.49787e-08 0)
(-3.18688e-08 1.4436e-08 0)
(-3.36418e-08 1.38709e-08 0)
(-3.54465e-08 1.32835e-08 0)
(-3.72821e-08 1.26738e-08 0)
(-3.91478e-08 1.20417e-08 0)
(-4.10429e-08 1.13874e-08 0)
(-4.29663e-08 1.07108e-08 0)
(-4.49172e-08 1.00122e-08 0)
(-4.68948e-08 9.29155e-09 0)
(-4.88981e-08 8.54902e-09 0)
(-5.0926e-08 7.78483e-09 0)
(-5.29777e-08 6.99914e-09 0)
(-5.50519e-08 6.19214e-09 0)
(-5.71477e-08 5.36411e-09 0)
(-5.9264e-08 4.5153e-09 0)
(-6.13996e-08 3.64598e-09 0)
(-6.35533e-08 2.75646e-09 0)
(-6.57238e-08 1.84712e-09 0)
(-6.791e-08 9.18265e-10 0)
(-7.01105e-08 -2.96949e-11 0)
(-7.2324e-08 -9.96354e-10 0)
(-7.45491e-08 -1.98129e-09 0)
(-7.67843e-08 -2.98403e-09 0)
(-7.90282e-08 -4.0041e-09 0)
(-8.12793e-08 -5.041e-09 0)
(-8.35359e-08 -6.0942e-09 0)
(-8.57966e-08 -7.16312e-09 0)
(-8.80596e-08 -8.2472e-09 0)
(-9.03233e-08 -9.34583e-09 0)
(-9.25859e-08 -1.04584e-08 0)
(-9.48457e-08 -1.15842e-08 0)
(-9.71008e-08 -1.27225e-08 0)
(-9.93496e-08 -1.38728e-08 0)
(-1.0159e-07 -1.50341e-08 0)
(-1.0382e-07 -1.62058e-08 0)
(-1.06038e-07 -1.7387e-08 0)
(-1.08242e-07 -1.8577e-08 0)
(-1.10429e-07 -1.97749e-08 0)
(-1.12598e-07 -2.09798e-08 0)
(-1.14747e-07 -2.21908e-08 0)
(-1.16874e-07 -2.34071e-08 0)
(-1.18976e-07 -2.46275e-08 0)
(-1.21052e-07 -2.58513e-08 0)
(-1.23099e-07 -2.70773e-08 0)
(-1.25115e-07 -2.83045e-08 0)
(-1.27099e-07 -2.9532e-08 0)
(-1.29047e-07 -3.07585e-08 0)
(-1.30958e-07 -3.19832e-08 0)
(-1.3283e-07 -3.32047e-08 0)
(-1.34661e-07 -3.44221e-08 0)
(-1.36449e-07 -3.56341e-08 0)
(-1.38191e-07 -3.68397e-08 0)
(-1.39886e-07 -3.80376e-08 0)
(-1.41531e-07 -3.92267e-08 0)
(-1.43125e-07 -4.04057e-08 0)
(-1.44666e-07 -4.15736e-08 0)
(-1.46152e-07 -4.2729e-08 0)
(-1.47581e-07 -4.38707e-08 0)
(-1.48952e-07 -4.49976e-08 0)
(-1.50262e-07 -4.61084e-08 0)
(-1.5151e-07 -4.7202e-08 0)
(-1.52696e-07 -4.8277e-08 0)
(-1.53816e-07 -4.93323e-08 1.36086e-33)
(-1.5487e-07 -5.03668e-08 -1.60221e-33)
(-1.55857e-07 -5.13791e-08 -1.21785e-33)
(-1.56775e-07 -5.23681e-08 1.46239e-33)
(-1.57623e-07 -5.33327e-08 -3.18708e-36)
(-1.584e-07 -5.42716e-08 0)
(-1.59105e-07 -5.51838e-08 0)
(-1.59738e-07 -5.60681e-08 0)
(-1.60298e-07 -5.69233e-08 0)
(-1.60783e-07 -5.77485e-08 0)
(-1.61194e-07 -5.85425e-08 0)
(-1.6153e-07 -5.93043e-08 0)
(-1.61791e-07 -6.00328e-08 0)
(-1.61976e-07 -6.07271e-08 0)
(-1.62086e-07 -6.13863e-08 0)
(-1.62121e-07 -6.20093e-08 0)
(-1.6208e-07 -6.25952e-08 0)
(-1.61964e-07 -6.31433e-08 0)
(-1.61774e-07 -6.36526e-08 0)
(-1.61509e-07 -6.41224e-08 0)
(-1.6117e-07 -6.45518e-08 0)
(-1.60759e-07 -6.49403e-08 0)
(-1.60276e-07 -6.5287e-08 0)
(-1.59721e-07 -6.55914e-08 0)
(-1.59097e-07 -6.58528e-08 0)
(-1.58403e-07 -6.60706e-08 0)
(-1.57641e-07 -6.62444e-08 0)
(-1.56814e-07 -6.63736e-08 0)
(-1.55921e-07 -6.64579e-08 0)
(-1.54964e-07 -6.64968e-08 0)
(-1.53946e-07 -6.649e-08 0)
(-1.52867e-07 -6.64372e-08 0)
(-1.5173e-07 -6.63381e-08 0)
(-1.50536e-07 -6.61926e-08 0)
(-1.49287e-07 -6.60005e-08 0)
(-1.47986e-07 -6.57616e-08 0)
(-1.46634e-07 -6.54759e-08 0)
(-1.45234e-07 -6.51434e-08 0)
(-1.43787e-07 -6.4764e-08 0)
(-1.42296e-07 -6.43379e-08 0)
(-1.40763e-07 -6.38653e-08 0)
(-1.39191e-07 -6.33461e-08 0)
(-1.37582e-07 -6.27807e-08 0)
(-1.35938e-07 -6.21693e-08 0)
(-1.34262e-07 -6.15122e-08 0)
(-1.32557e-07 -6.08098e-08 0)
(-1.30824e-07 -6.00623e-08 0)
(-1.29067e-07 -5.92703e-08 0)
(-1.27288e-07 -5.84342e-08 0)
(-1.2549e-07 -5.75546e-08 0)
(-1.23675e-07 -5.66318e-08 0)
(-1.21846e-07 -5.56666e-08 0)
(-1.20005e-07 -5.46596e-08 0)
(-1.18156e-07 -5.36114e-08 0)
(-1.16301e-07 -5.25227e-08 0)
(-1.14443e-07 -5.13943e-08 0)
(-1.12584e-07 -5.02269e-08 0)
(-1.10727e-07 -4.90213e-08 0)
(-1.08875e-07 -4.77784e-08 0)
(-1.07031e-07 -4.64989e-08 0)
(-1.05196e-07 -4.51839e-08 0)
(-1.03374e-07 -4.38343e-08 0)
(-1.01568e-07 -4.24509e-08 0)
(-9.97792e-08 -4.10347e-08 0)
(-9.80113e-08 -3.95869e-08 0)
(-9.62667e-08 -3.81083e-08 0)
(-9.45478e-08 -3.66001e-08 0)
(-9.28571e-08 -3.50633e-08 0)
(-9.11973e-08 -3.34989e-08 0)
(-8.95707e-08 -3.19082e-08 0)
(-8.79797e-08 -3.02922e-08 0)
(-8.6427e-08 -2.8652e-08 0)
(-8.49147e-08 -2.69889e-08 0)
(-8.34452e-08 -2.53039e-08 0)
(-8.20208e-08 -2.35983e-08 0)
(-8.06439e-08 -2.18733e-08 0)
(-7.93165e-08 -2.01299e-08 0)
(-7.8041e-08 -1.83695e-08 0)
(-7.68194e-08 -1.65933e-08 0)
(-7.56537e-08 -1.48024e-08 0)
(-7.45462e-08 -1.29981e-08 0)
(-7.34987e-08 -1.11815e-08 0)
(-7.25133e-08 -9.35392e-09 0)
(-7.15919e-08 -7.51661e-09 0)
(-7.07362e-08 -5.67069e-09 0)
(-6.99482e-08 -3.81741e-09 0)
(-6.92296e-08 -1.95799e-09 0)
(-6.85823e-08 -9.36503e-11 0)
(-6.80075e-08 1.77445e-09 0)
(-6.75075e-08 3.64509e-09 0)
(-6.70833e-08 5.51708e-09 0)
(-6.67368e-08 7.38925e-09 0)
(-6.64693e-08 9.26044e-09 0)
(-6.62822e-08 1.11295e-08 0)
(-6.6177e-08 1.29952e-08 0)
(-6.61552e-08 1.48565e-08 0)
(-6.62176e-08 1.67122e-08 0)
(-6.63658e-08 1.85613e-08 0)
(-6.66008e-08 2.04026e-08 0)
(-6.69237e-08 2.2235e-08 0)
(-6.73357e-08 2.40576e-08 0)
(-6.78377e-08 2.58691e-08 0)
(-6.84307e-08 2.76687e-08 0)
(-6.91157e-08 2.94553e-08 0)
(-6.98933e-08 3.12278e-08 0)
(-7.07645e-08 3.29854e-08 0)
(-7.17301e-08 3.47271e-08 0)
(-7.27906e-08 3.64519e-08 0)
(-7.39468e-08 3.8159e-08 0)
(-7.51993e-08 3.98475e-08 0)
(-7.65487e-08 4.15164e-08 0)
(-7.79953e-08 4.3165e-08 0)
(-7.95398e-08 4.47925e-08 0)
(-8.11826e-08 4.63981e-08 0)
(-8.29239e-08 4.79809e-08 0)
(-8.47643e-08 4.95404e-08 0)
(-8.67039e-08 5.10757e-08 0)
(-8.87432e-08 5.25863e-08 0)
(-9.08822e-08 5.40713e-08 0)
(-9.31214e-08 5.55304e-08 0)
(-9.54607e-08 5.69627e-08 0)
(-9.79004e-08 5.83679e-08 0)
(-1.00441e-07 5.97453e-08 0)
(-1.03082e-07 6.10944e-08 0)
(-1.05823e-07 6.24147e-08 0)
(-1.08666e-07 6.37058e-08 0)
(-1.11609e-07 6.49673e-08 0)
(-1.14653e-07 6.61987e-08 0)
(-1.17799e-07 6.73998e-08 0)
(-1.21045e-07 6.857e-08 0)
(-1.24393e-07 6.97092e-08 0)
(-1.27842e-07 7.0817e-08 0)
(-1.31391e-07 7.18932e-08 0)
(-1.35043e-07 7.29375e-08 0)
(-1.38795e-07 7.39497e-08 0)
(-1.42649e-07 7.49295e-08 0)
(-1.46605e-07 7.58769e-08 0)
(-1.50662e-07 7.67917e-08 0)
(-1.54821e-07 7.76736e-08 0)
(-1.59082e-07 7.85227e-08 0)
(-1.63445e-07 7.93388e-08 0)
(-1.6791e-07 8.01219e-08 0)
(-1.72478e-07 8.08718e-08 0)
(-1.7715e-07 8.15886e-08 0)
(-1.81924e-07 8.22722e-08 0)
(-1.86803e-07 8.29225e-08 0)
(-1.91785e-07 8.35397e-08 0)
(-1.96873e-07 8.41237e-08 0)
(-2.02066e-07 8.46745e-08 0)
(-2.07365e-07 8.51922e-08 0)
(-2.12771e-07 8.56767e-08 0)
(-2.18285e-07 8.61282e-08 0)
(-2.23908e-07 8.65467e-08 0)
(-2.2964e-07 8.69322e-08 0)
(-2.35483e-07 8.72847e-08 0)
(-2.41439e-07 8.76043e-08 0)
(-2.47508e-07 8.7891e-08 0)
(-2.53693e-07 8.81449e-08 0)
(-2.59995e-07 8.8366e-08 0)
(-2.66415e-07 8.85542e-08 0)
(-2.72957e-07 8.87096e-08 0)
(-2.79622e-07 8.88321e-08 0)
(-2.86414e-07 8.89216e-08 0)
(-2.93334e-07 8.8978e-08 0)
(-3.00387e-07 8.90012e-08 0)
(-3.07575e-07 8.8991e-08 0)
(-3.14903e-07 8.89471e-08 0)
(-3.22375e-07 8.88692e-08 0)
(-3.29995e-07 8.8757e-08 0)
(-3.37769e-07 8.86099e-08 0)
(-3.45704e-07 8.84275e-08 0)
(-3.53804e-07 8.8209e-08 0)
(-3.62079e-07 8.79536e-08 0)
(-3.70536e-07 8.76604e-08 0)
(-3.79184e-07 8.73283e-08 0)
(-3.88034e-07 8.6956e-08 0)
(-3.97098e-07 8.65419e-08 0)
(-4.06388e-07 8.60842e-08 0)
(-4.1592e-07 8.55809e-08 0)
(-4.25712e-07 8.50296e-08 0)
(-4.35782e-07 8.44273e-08 0)
(-4.46154e-07 8.37708e-08 0)
(-4.56854e-07 8.30561e-08 0)
(-4.67912e-07 8.22788e-08 0)
(-4.79365e-07 8.14334e-08 0)
(-4.91253e-07 8.05136e-08 0)
(-5.03627e-07 7.95118e-08 0)
(-5.16546e-07 7.8419e-08 0)
(-5.30082e-07 7.72241e-08 0)
(-5.44321e-07 7.59136e-08 0)
(-5.59372e-07 7.4471e-08 0)
(-5.75366e-07 7.28751e-08 0)
(-5.92476e-07 7.1099e-08 0)
(-6.1092e-07 6.91069e-08 0)
(-6.30992e-07 6.685e-08 0)
(-6.53089e-07 6.42577e-08 0)
(-6.77777e-07 6.12327e-08 0)
(-7.05968e-07 5.76405e-08 0)
(-7.38967e-07 5.30357e-08 0)
(-7.7719e-07 4.61097e-08 0)
(-8.22378e-07 4.21632e-08 0)
(-6.92289e-07 4.4155e-08 0)
(-1.42554e-11 9.05363e-09 0)
(5.09939e-09 1.83722e-08 0)
(7.65477e-09 2.2212e-08 0)
(8.42842e-09 2.3728e-08 0)
(8.34826e-09 2.45023e-08 0)
(7.78998e-09 2.49552e-08 0)
(6.92296e-09 2.5236e-08 0)
(5.84617e-09 2.54193e-08 0)
(4.61144e-09 2.55436e-08 0)
(3.2415e-09 2.56296e-08 0)
(1.74468e-09 2.56881e-08 0)
(1.23448e-10 2.57242e-08 0)
(-1.62132e-09 2.57398e-08 0)
(-3.48874e-09 2.57355e-08 0)
(-5.47775e-09 2.5711e-08 0)
(-7.58644e-09 2.56657e-08 0)
(-9.81296e-09 2.55991e-08 0)
(-1.21552e-08 2.55106e-08 0)
(-1.46111e-08 2.53998e-08 0)
(-1.71785e-08 2.52664e-08 0)
(-1.98557e-08 2.51098e-08 0)
(-2.26408e-08 2.49298e-08 0)
(-2.55321e-08 2.4726e-08 0)
(-2.85279e-08 2.4498e-08 0)
(-3.16266e-08 2.42454e-08 0)
(-3.48266e-08 2.39679e-08 0)
(-3.81264e-08 2.36652e-08 0)
(-4.15244e-08 2.3337e-08 0)
(-4.50191e-08 2.29828e-08 0)
(-4.86089e-08 2.26023e-08 0)
(-5.22923e-08 2.21954e-08 0)
(-5.60676e-08 2.17616e-08 0)
(-5.99333e-08 2.13008e-08 0)
(-6.38878e-08 2.08126e-08 0)
(-6.79292e-08 2.0297e-08 0)
(-7.20559e-08 1.97536e-08 0)
(-7.62662e-08 1.91823e-08 0)
(-8.05582e-08 1.8583e-08 0)
(-8.49302e-08 1.79555e-08 0)
(-8.93801e-08 1.72998e-08 0)
(-9.39061e-08 1.66158e-08 0)
(-9.85062e-08 1.59035e-08 0)
(-1.03178e-07 1.51628e-08 0)
(-1.0792e-07 1.43938e-08 0)
(-1.1273e-07 1.35965e-08 0)
(-1.17605e-07 1.2771e-08 0)
(-1.22543e-07 1.19174e-08 0)
(-1.27541e-07 1.10359e-08 0)
(-1.32598e-07 1.01265e-08 0)
(-1.37711e-07 9.18958e-09 0)
(-1.42876e-07 8.22525e-09 0)
(-1.48091e-07 7.23378e-09 0)
(-1.53354e-07 6.21543e-09 0)
(-1.58661e-07 5.17052e-09 0)
(-1.64009e-07 4.09939e-09 0)
(-1.69396e-07 3.00239e-09 0)
(-1.74817e-07 1.87993e-09 0)
(-1.8027e-07 7.32399e-10 0)
(-1.85752e-07 -4.39728e-10 0)
(-1.91257e-07 -1.63596e-09 0)
(-1.96784e-07 -2.8558e-09 0)
(-2.02328e-07 -4.09872e-09 0)
(-2.07885e-07 -5.36412e-09 0)
(-2.13452e-07 -6.65141e-09 0)
(-2.19024e-07 -7.95992e-09 0)
(-2.24597e-07 -9.289e-09 0)
(-2.30167e-07 -1.06379e-08 0)
(-2.3573e-07 -1.2006e-08 0)
(-2.4128e-07 -1.33924e-08 0)
(-2.46814e-07 -1.47963e-08 0)
(-2.52327e-07 -1.62168e-08 0)
(-2.57814e-07 -1.76532e-08 0)
(-2.63271e-07 -1.91043e-08 0)
(-2.68692e-07 -2.05694e-08 0)
(-2.74073e-07 -2.20473e-08 0)
(-2.79408e-07 -2.35371e-08 0)
(-2.84693e-07 -2.50376e-08 0)
(-2.89923e-07 -2.65477e-08 0)
(-2.95092e-07 -2.80663e-08 0)
(-3.00195e-07 -2.95922e-08 0)
(-3.05227e-07 -3.11241e-08 0)
(-3.10184e-07 -3.26608e-08 0)
(-3.15059e-07 -3.42009e-08 0)
(-3.19848e-07 -3.57432e-08 0)
(-3.24545e-07 -3.72863e-08 0)
(-3.29146e-07 -3.88287e-08 0)
(-3.33646e-07 -4.03691e-08 0)
(-3.38038e-07 -4.19059e-08 0)
(-3.4232e-07 -4.34378e-08 0)
(-3.46485e-07 -4.49632e-08 0)
(-3.50528e-07 -4.64805e-08 0)
(-3.54446e-07 -4.79884e-08 0)
(-3.58234e-07 -4.9485e-08 0)
(-3.61887e-07 -5.0969e-08 0)
(-3.65401e-07 -5.24387e-08 0)
(-3.68771e-07 -5.38925e-08 0)
(-3.71995e-07 -5.53288e-08 0)
(-3.75067e-07 -5.6746e-08 0)
(-3.77985e-07 -5.81425e-08 1.1878e-49)
(-3.80744e-07 -5.95167e-08 -2.16069e-34)
(-3.83342e-07 -6.08669e-08 2.1607e-34)
(-3.85775e-07 -6.21915e-08 3.0881e-49)
(-3.88041e-07 -6.3489e-08 0)
(-3.90137e-07 -6.47577e-08 0)
(-3.92061e-07 -6.59961e-08 0)
(-3.93809e-07 -6.72026e-08 0)
(-3.95382e-07 -6.83756e-08 0)
(-3.96776e-07 -6.95137e-08 0)
(-3.9799e-07 -7.06153e-08 0)
(-3.99023e-07 -7.16789e-08 0)
(-3.99875e-07 -7.2703e-08 0)
(-4.00544e-07 -7.36864e-08 0)
(-4.01031e-07 -7.46275e-08 0)
(-4.01334e-07 -7.5525e-08 0)
(-4.01455e-07 -7.63777e-08 0)
(-4.01394e-07 -7.71841e-08 0)
(-4.01151e-07 -7.79432e-08 0)
(-4.00728e-07 -7.86536e-08 0)
(-4.00125e-07 -7.93143e-08 0)
(-3.99345e-07 -7.99241e-08 0)
(-3.98388e-07 -8.04821e-08 0)
(-3.97258e-07 -8.09871e-08 0)
(-3.95956e-07 -8.14384e-08 0)
(-3.94485e-07 -8.18349e-08 0)
(-3.92848e-07 -8.21759e-08 0)
(-3.91048e-07 -8.24605e-08 0)
(-3.89087e-07 -8.26881e-08 0)
(-3.8697e-07 -8.28581e-08 0)
(-3.84701e-07 -8.29697e-08 0)
(-3.82283e-07 -8.30226e-08 0)
(-3.7972e-07 -8.30162e-08 0)
(-3.77016e-07 -8.295e-08 0)
(-3.74177e-07 -8.28239e-08 0)
(-3.71207e-07 -8.26374e-08 0)
(-3.6811e-07 -8.23904e-08 0)
(-3.64893e-07 -8.20827e-08 0)
(-3.61559e-07 -8.17142e-08 0)
(-3.58115e-07 -8.12849e-08 0)
(-3.54565e-07 -8.07948e-08 0)
(-3.50916e-07 -8.02441e-08 0)
(-3.47173e-07 -7.96328e-08 0)
(-3.43342e-07 -7.89612e-08 0)
(-3.39429e-07 -7.82296e-08 0)
(-3.3544e-07 -7.74384e-08 0)
(-3.31381e-07 -7.65878e-08 0)
(-3.27258e-07 -7.56784e-08 0)
(-3.23078e-07 -7.47106e-08 0)
(-3.18846e-07 -7.36851e-08 0)
(-3.14569e-07 -7.26025e-08 0)
(-3.10254e-07 -7.14634e-08 0)
(-3.05907e-07 -7.02686e-08 0)
(-3.01534e-07 -6.90188e-08 0)
(-2.97142e-07 -6.7715e-08 0)
(-2.92737e-07 -6.63579e-08 0)
(-2.88327e-07 -6.49484e-08 0)
(-2.83917e-07 -6.34876e-08 0)
(-2.79513e-07 -6.19765e-08 0)
(-2.75124e-07 -6.04161e-08 0)
(-2.70754e-07 -5.88075e-08 0)
(-2.66411e-07 -5.71519e-08 0)
(-2.62101e-07 -5.54504e-08 0)
(-2.57829e-07 -5.37043e-08 0)
(-2.53604e-07 -5.19147e-08 0)
(-2.49431e-07 -5.0083e-08 0)
(-2.45315e-07 -4.82104e-08 0)
(-2.41265e-07 -4.62984e-08 0)
(-2.37285e-07 -4.43482e-08 0)
(-2.33381e-07 -4.23612e-08 0)
(-2.29561e-07 -4.03389e-08 0)
(-2.25829e-07 -3.82827e-08 0)
(-2.22192e-07 -3.6194e-08 0)
(-2.18655e-07 -3.40743e-08 0)
(-2.15224e-07 -3.1925e-08 0)
(-2.11904e-07 -2.97478e-08 0)
(-2.08702e-07 -2.7544e-08 0)
(-2.05623e-07 -2.53153e-08 0)
(-2.02671e-07 -2.30631e-08 0)
(-1.99853e-07 -2.0789e-08 0)
(-1.97172e-07 -1.84945e-08 0)
(-1.94635e-07 -1.61811e-08 0)
(-1.92247e-07 -1.38506e-08 0)
(-1.90011e-07 -1.15043e-08 0)
(-1.87933e-07 -9.14384e-09 0)
(-1.86017e-07 -6.77083e-09 0)
(-1.84268e-07 -4.38678e-09 0)
(-1.8269e-07 -1.99325e-09 0)
(-1.81287e-07 4.08192e-10 0)
(-1.80064e-07 2.81601e-09 0)
(-1.79024e-07 5.22868e-09 0)
(-1.78172e-07 7.64465e-09 0)
(-1.77511e-07 1.00624e-08 0)
(-1.77044e-07 1.24805e-08 0)
(-1.76776e-07 1.48973e-08 0)
(-1.7671e-07 1.73114e-08 0)
(-1.76849e-07 1.97213e-08 0)
(-1.77195e-07 2.21256e-08 0)
(-1.77753e-07 2.45229e-08 0)
(-1.78525e-07 2.69117e-08 0)
(-1.79514e-07 2.92906e-08 0)
(-1.80722e-07 3.16582e-08 0)
(-1.82152e-07 3.40133e-08 0)
(-1.83806e-07 3.63544e-08 0)
(-1.85687e-07 3.86804e-08 0)
(-1.87797e-07 4.09898e-08 0)
(-1.90137e-07 4.32814e-08 0)
(-1.9271e-07 4.55541e-08 0)
(-1.95517e-07 4.78066e-08 0)
(-1.98561e-07 5.00379e-08 0)
(-2.01842e-07 5.22466e-08 0)
(-2.05362e-07 5.44319e-08 0)
(-2.09122e-07 5.65925e-08 0)
(-2.13124e-07 5.87275e-08 0)
(-2.17368e-07 6.0836e-08 0)
(-2.21857e-07 6.29169e-08 0)
(-2.2659e-07 6.49693e-08 0)
(-2.31568e-07 6.69923e-08 0)
(-2.36793e-07 6.89852e-08 0)
(-2.42264e-07 7.0947e-08 0)
(-2.47984e-07 7.28772e-08 0)
(-2.53951e-07 7.47748e-08 0)
(-2.60167e-07 7.66392e-08 0)
(-2.66633e-07 7.84699e-08 0)
(-2.73348e-07 8.02661e-08 0)
(-2.80312e-07 8.20273e-08 0)
(-2.87527e-07 8.3753e-08 0)
(-2.94993e-07 8.54427e-08 0)
(-3.0271e-07 8.70959e-08 0)
(-3.10677e-07 8.87121e-08 0)
(-3.18896e-07 9.02911e-08 0)
(-3.27367e-07 9.18325e-08 0)
(-3.3609e-07 9.3336e-08 0)
(-3.45065e-07 9.48012e-08 0)
(-3.54292e-07 9.6228e-08 0)
(-3.63773e-07 9.76162e-08 0)
(-3.73506e-07 9.89655e-08 0)
(-3.83494e-07 1.00276e-07 0)
(-3.93735e-07 1.01547e-07 0)
(-4.04232e-07 1.02779e-07 0)
(-4.14983e-07 1.03972e-07 0)
(-4.25991e-07 1.05126e-07 0)
(-4.37256e-07 1.0624e-07 0)
(-4.48779e-07 1.07316e-07 0)
(-4.6056e-07 1.08352e-07 0)
(-4.72602e-07 1.09349e-07 0)
(-4.84904e-07 1.10307e-07 0)
(-4.9747e-07 1.11227e-07 0)
(-5.10299e-07 1.12108e-07 0)
(-5.23395e-07 1.1295e-07 0)
(-5.36758e-07 1.13754e-07 0)
(-5.50392e-07 1.14521e-07 0)
(-5.64299e-07 1.15249e-07 0)
(-5.7848e-07 1.1594e-07 0)
(-5.9294e-07 1.16594e-07 0)
(-6.07681e-07 1.17212e-07 0)
(-6.22707e-07 1.17792e-07 0)
(-6.38022e-07 1.18337e-07 0)
(-6.5363e-07 1.18846e-07 0)
(-6.69536e-07 1.19319e-07 0)
(-6.85745e-07 1.19758e-07 0)
(-7.02263e-07 1.20162e-07 0)
(-7.19096e-07 1.20532e-07 0)
(-7.36251e-07 1.20868e-07 0)
(-7.53737e-07 1.21171e-07 0)
(-7.71561e-07 1.21442e-07 0)
(-7.89732e-07 1.2168e-07 0)
(-8.08262e-07 1.21887e-07 0)
(-8.27162e-07 1.22064e-07 0)
(-8.46444e-07 1.22209e-07 0)
(-8.66123e-07 1.22326e-07 0)
(-8.86215e-07 1.22413e-07 0)
(-9.06737e-07 1.22472e-07 0)
(-9.27708e-07 1.22503e-07 0)
(-9.49152e-07 1.22508e-07 0)
(-9.71093e-07 1.22487e-07 0)
(-9.93558e-07 1.22442e-07 0)
(-1.01658e-06 1.22373e-07 0)
(-1.04019e-06 1.22283e-07 0)
(-1.06444e-06 1.22172e-07 0)
(-1.08937e-06 1.22044e-07 0)
(-1.11503e-06 1.21901e-07 0)
(-1.14149e-06 1.21745e-07 0)
(-1.16881e-06 1.21582e-07 0)
(-1.19709e-06 1.21415e-07 0)
(-1.22641e-06 1.21252e-07 0)
(-1.2569e-06 1.21101e-07 0)
(-1.28869e-06 1.20973e-07 0)
(-1.32194e-06 1.20882e-07 0)
(-1.35685e-06 1.20849e-07 0)
(-1.39367e-06 1.20899e-07 0)
(-1.43268e-06 1.2107e-07 0)
(-1.47426e-06 1.21414e-07 0)
(-1.51886e-06 1.22007e-07 0)
(-1.56707e-06 1.22961e-07 0)
(-1.61965e-06 1.24446e-07 0)
(-1.67759e-06 1.26727e-07 0)
(-1.74235e-06 1.30225e-07 0)
(-1.8152e-06 1.35504e-07 0)
(-1.89421e-06 1.43127e-07 0)
(-1.97287e-06 1.53821e-07 0)
(-1.56685e-06 1.30522e-07 0)
(-5.24293e-10 6.46513e-09 0)
(4.30866e-09 1.46699e-08 0)
(7.38768e-09 1.97232e-08 0)
(9.1522e-09 2.26265e-08 0)
(9.82808e-09 2.44022e-08 0)
(9.66768e-09 2.55345e-08 0)
(8.89261e-09 2.62893e-08 0)
(7.6627e-09 2.68212e-08 0)
(6.07828e-09 2.72202e-08 0)
(4.19797e-09 2.7538e-08 0)
(2.05556e-09 2.78033e-08 0)
(-3.29115e-10 2.80314e-08 0)
(-2.94336e-09 2.82293e-08 0)
(-5.77802e-09 2.84003e-08 0)
(-8.82583e-09 2.85454e-08 0)
(-1.20806e-08 2.8665e-08 0)
(-1.55369e-08 2.87589e-08 0)
(-1.91898e-08 2.88272e-08 0)
(-2.3035e-08 2.88694e-08 0)
(-2.70685e-08 2.88856e-08 0)
(-3.12867e-08 2.88755e-08 0)
(-3.56864e-08 2.88389e-08 0)
(-4.02643e-08 2.87755e-08 0)
(-4.50178e-08 2.8685e-08 0)
(-4.99439e-08 2.85672e-08 0)
(-5.50401e-08 2.84218e-08 0)
(-6.03037e-08 2.82483e-08 0)
(-6.57322e-08 2.80466e-08 0)
(-7.13229e-08 2.78164e-08 0)
(-7.70734e-08 2.75572e-08 0)
(-8.2981e-08 2.72689e-08 0)
(-8.90433e-08 2.69511e-08 0)
(-9.52576e-08 2.66036e-08 0)
(-1.01621e-07 2.62262e-08 0)
(-1.08132e-07 2.58186e-08 0)
(-1.14786e-07 2.53805e-08 0)
(-1.21581e-07 2.49118e-08 0)
(-1.28515e-07 2.44124e-08 0)
(-1.35584e-07 2.3882e-08 0)
(-1.42786e-07 2.33205e-08 0)
(-1.50117e-07 2.27277e-08 0)
(-1.57574e-07 2.21037e-08 0)
(-1.65153e-07 2.14483e-08 0)
(-1.72853e-07 2.07614e-08 0)
(-1.80668e-07 2.0043e-08 0)
(-1.88595e-07 1.92932e-08 0)
(-1.96631e-07 1.85118e-08 0)
(-2.04772e-07 1.76991e-08 0)
(-2.13014e-07 1.68549e-08 0)
(-2.21353e-07 1.59794e-08 0)
(-2.29784e-07 1.50727e-08 0)
(-2.38303e-07 1.4135e-08 0)
(-2.46905e-07 1.31664e-08 0)
(-2.55587e-07 1.2167e-08 0)
(-2.64342e-07 1.11371e-08 0)
(-2.73167e-07 1.00769e-08 0)
(-2.82055e-07 8.9867e-09 0)
(-2.91002e-07 7.86676e-09 0)
(-3.00002e-07 6.71741e-09 0)
(-3.09049e-07 5.53899e-09 0)
(-3.18138e-07 4.33187e-09 0)
(-3.27261e-07 3.09651e-09 0)
(-3.36415e-07 1.83331e-09 0)
(-3.45591e-07 5.42758e-10 0)
(-3.54783e-07 -7.74633e-10 0)
(-3.63985e-07 -2.11831e-09 0)
(-3.73189e-07 -3.48766e-09 0)
(-3.8239e-07 -4.88207e-09 0)
(-3.91579e-07 -6.30089e-09 0)
(-4.00749e-07 -7.74336e-09 0)
(-4.09893e-07 -9.20877e-09 0)
(-4.19003e-07 -1.06963e-08 0)
(-4.28072e-07 -1.22051e-08 0)
(-4.37091e-07 -1.37343e-08 0)
(-4.46053e-07 -1.52829e-08 0)
(-4.54949e-07 -1.68501e-08 0)
(-4.63772e-07 -1.84346e-08 0)
(-4.72513e-07 -2.00355e-08 0)
(-4.81164e-07 -2.16515e-08 0)
(-4.89716e-07 -2.32816e-08 0)
(-4.98162e-07 -2.49246e-08 0)
(-5.06492e-07 -2.6579e-08 0)
(-5.14699e-07 -2.82436e-08 0)
(-5.22773e-07 -2.99171e-08 0)
(-5.30708e-07 -3.1598e-08 0)
(-5.38493e-07 -3.32848e-08 0)
(-5.46122e-07 -3.4976e-08 0)
(-5.53585e-07 -3.66701e-08 0)
(-5.60875e-07 -3.83656e-08 0)
(-5.67983e-07 -4.00607e-08 0)
(-5.74903e-07 -4.17538e-08 0)
(-5.81625e-07 -4.34432e-08 0)
(-5.88143e-07 -4.51272e-08 0)
(-5.94449e-07 -4.68041e-08 0)
(-6.00537e-07 -4.84719e-08 0)
(-6.06398e-07 -5.0129e-08 0)
(-6.12027e-07 -5.17734e-08 0)
(-6.17416e-07 -5.34034e-08 0)
(-6.22561e-07 -5.50171e-08 0)
(-6.27454e-07 -5.66125e-08 4.03639e-37)
(-6.32091e-07 -5.81878e-08 -4.0386e-37)
(-6.36466e-07 -5.9741e-08 0)
(-6.40574e-07 -6.12704e-08 0)
(-6.4441e-07 -6.27738e-08 0)
(-6.47971e-07 -6.42496e-08 0)
(-6.51253e-07 -6.56957e-08 0)
(-6.54251e-07 -6.71102e-08 0)
(-6.56964e-07 -6.84913e-08 0)
(-6.59388e-07 -6.98372e-08 0)
(-6.61521e-07 -7.11459e-08 0)
(-6.63361e-07 -7.24158e-08 0)
(-6.64907e-07 -7.36448e-08 0)
(-6.66159e-07 -7.48315e-08 0)
(-6.67114e-07 -7.59739e-08 0)
(-6.67774e-07 -7.70704e-08 0)
(-6.68139e-07 -7.81193e-08 0)
(-6.68209e-07 -7.91192e-08 0)
(-6.67986e-07 -8.00683e-08 0)
(-6.67471e-07 -8.09652e-08 0)
(-6.66667e-07 -8.18085e-08 0)
(-6.65576e-07 -8.25966e-08 0)
(-6.64201e-07 -8.33284e-08 0)
(-6.62544e-07 -8.40025e-08 0)
(-6.60611e-07 -8.46177e-08 0)
(-6.58405e-07 -8.51728e-08 0)
(-6.55931e-07 -8.56668e-08 0)
(-6.53194e-07 -8.60986e-08 0)
(-6.50199e-07 -8.64673e-08 0)
(-6.46951e-07 -8.67721e-08 0)
(-6.43457e-07 -8.7012e-08 0)
(-6.39723e-07 -8.71863e-08 0)
(-6.35757e-07 -8.72945e-08 0)
(-6.31564e-07 -8.73359e-08 0)
(-6.27152e-07 -8.731e-08 0)
(-6.22529e-07 -8.72164e-08 0)
(-6.17703e-07 -8.70548e-08 0)
(-6.12681e-07 -8.68247e-08 0)
(-6.07473e-07 -8.65261e-08 0)
(-6.02087e-07 -8.61588e-08 0)
(-5.96531e-07 -8.57227e-08 0)
(-5.90815e-07 -8.5218e-08 0)
(-5.84948e-07 -8.46445e-08 0)
(-5.78939e-07 -8.40026e-08 0)
(-5.72799e-07 -8.32924e-08 0)
(-5.66536e-07 -8.25143e-08 0)
(-5.60161e-07 -8.16687e-08 0)
(-5.53683e-07 -8.07559e-08 0)
(-5.47113e-07 -7.97765e-08 0)
(-5.40461e-07 -7.8731e-08 0)
(-5.33737e-07 -7.76202e-08 0)
(-5.26951e-07 -7.64447e-08 0)
(-5.20115e-07 -7.52052e-08 0)
(-5.13238e-07 -7.39026e-08 0)
(-5.0633e-07 -7.25378e-08 0)
(-4.99404e-07 -7.11117e-08 0)
(-4.92468e-07 -6.96253e-08 0)
(-4.85534e-07 -6.80796e-08 0)
(-4.78612e-07 -6.64758e-08 0)
(-4.71713e-07 -6.48149e-08 0)
(-4.64847e-07 -6.30981e-08 0)
(-4.58024e-07 -6.13268e-08 0)
(-4.51256e-07 -5.9502e-08 0)
(-4.44553e-07 -5.76253e-08 0)
(-4.37925e-07 -5.56978e-08 0)
(-4.31381e-07 -5.37211e-08 0)
(-4.24934e-07 -5.16965e-08 0)
(-4.18591e-07 -4.96254e-08 0)
(-4.12365e-07 -4.75094e-08 0)
(-4.06264e-07 -4.53499e-08 0)
(-4.00298e-07 -4.31486e-08 0)
(-3.94477e-07 -4.09069e-08 0)
(-3.88811e-07 -3.86264e-08 0)
(-3.83308e-07 -3.63088e-08 0)
(-3.7798e-07 -3.39557e-08 0)
(-3.72833e-07 -3.15687e-08 0)
(-3.67878e-07 -2.91494e-08 0)
(-3.63124e-07 -2.66997e-08 0)
(-3.58579e-07 -2.4221e-08 0)
(-3.54252e-07 -2.17151e-08 0)
(-3.50151e-07 -1.91838e-08 0)
(-3.46284e-07 -1.66287e-08 0)
(-3.4266e-07 -1.40516e-08 0)
(-3.39287e-07 -1.14541e-08 0)
(-3.36172e-07 -8.83809e-09 0)
(-3.33322e-07 -6.20518e-09 0)
(-3.30746e-07 -3.55714e-09 0)
(-3.28451e-07 -8.95691e-10 0)
(-3.26442e-07 1.77743e-09 0)
(-3.24728e-07 4.46054e-09 0)
(-3.23316e-07 7.15187e-09 0)
(-3.2221e-07 9.84975e-09 0)
(-3.21418e-07 1.25525e-08 0)
(-3.20946e-07 1.52584e-08 0)
(-3.208e-07 1.79657e-08 0)
(-3.20985e-07 2.06729e-08 0)
(-3.21507e-07 2.33783e-08 0)
(-3.2237e-07 2.60802e-08 0)
(-3.23581e-07 2.87771e-08 0)
(-3.25144e-07 3.14674e-08 0)
(-3.27063e-07 3.41495e-08 0)
(-3.29343e-07 3.68219e-08 0)
(-3.31989e-07 3.9483e-08 0)
(-3.35004e-07 4.21315e-08 0)
(-3.38392e-07 4.47658e-08 0)
(-3.42157e-07 4.73846e-08 0)
(-3.46302e-07 4.99864e-08 0)
(-3.5083e-07 5.25699e-08 0)
(-3.55746e-07 5.51337e-08 0)
(-3.6105e-07 5.76767e-08 0)
(-3.66747e-07 6.01976e-08 0)
(-3.72838e-07 6.26951e-08 0)
(-3.79326e-07 6.51681e-08 0)
(-3.86214e-07 6.76156e-08 0)
(-3.93503e-07 7.00363e-08 0)
(-4.01195e-07 7.24294e-08 0)
(-4.09292e-07 7.47937e-08 0)
(-4.17796e-07 7.71284e-08 0)
(-4.26708e-07 7.94326e-08 0)
(-4.36029e-07 8.17054e-08 0)
(-4.45761e-07 8.3946e-08 0)
(-4.55905e-07 8.61536e-08 0)
(-4.66462e-07 8.83276e-08 0)
(-4.77433e-07 9.04673e-08 0)
(-4.88819e-07 9.25721e-08 0)
(-5.00621e-07 9.46413e-08 0)
(-5.1284e-07 9.66745e-08 0)
(-5.25476e-07 9.86712e-08 0)
(-5.38531e-07 1.00631e-07 0)
(-5.52005e-07 1.02553e-07 0)
(-5.65898e-07 1.04438e-07 0)
(-5.80213e-07 1.06285e-07 0)
(-5.94948e-07 1.08094e-07 0)
(-6.10106e-07 1.09864e-07 0)
(-6.25687e-07 1.11596e-07 0)
(-6.41692e-07 1.13289e-07 0)
(-6.58122e-07 1.14943e-07 0)
(-6.74978e-07 1.16559e-07 0)
(-6.92261e-07 1.18136e-07 0)
(-7.09973e-07 1.19674e-07 0)
(-7.28115e-07 1.21173e-07 0)
(-7.46688e-07 1.22634e-07 0)
(-7.65694e-07 1.24057e-07 0)
(-7.85136e-07 1.25442e-07 0)
(-8.05015e-07 1.26788e-07 0)
(-8.25333e-07 1.28098e-07 0)
(-8.46093e-07 1.2937e-07 0)
(-8.67298e-07 1.30605e-07 0)
(-8.8895e-07 1.31804e-07 0)
(-9.11054e-07 1.32967e-07 0)
(-9.33613e-07 1.34095e-07 0)
(-9.56631e-07 1.35188e-07 0)
(-9.80112e-07 1.36247e-07 0)
(-1.00406e-06 1.37272e-07 0)
(-1.02848e-06 1.38264e-07 0)
(-1.05339e-06 1.39225e-07 0)
(-1.07878e-06 1.40155e-07 0)
(-1.10466e-06 1.41054e-07 0)
(-1.13104e-06 1.41924e-07 0)
(-1.15793e-06 1.42767e-07 0)
(-1.18534e-06 1.43582e-07 0)
(-1.21328e-06 1.44371e-07 0)
(-1.24176e-06 1.45137e-07 0)
(-1.2708e-06 1.4588e-07 0)
(-1.3004e-06 1.46601e-07 0)
(-1.33058e-06 1.47303e-07 0)
(-1.36136e-06 1.47988e-07 0)
(-1.39275e-06 1.48657e-07 0)
(-1.42479e-06 1.49314e-07 0)
(-1.45748e-06 1.49961e-07 0)
(-1.49085e-06 1.506e-07 0)
(-1.52494e-06 1.51235e-07 0)
(-1.55978e-06 1.51869e-07 0)
(-1.59539e-06 1.52508e-07 0)
(-1.63182e-06 1.53155e-07 0)
(-1.66911e-06 1.53817e-07 0)
(-1.70731e-06 1.54499e-07 0)
(-1.74649e-06 1.5521e-07 0)
(-1.78669e-06 1.55957e-07 0)
(-1.828e-06 1.56751e-07 0)
(-1.87049e-06 1.57605e-07 0)
(-1.91427e-06 1.58533e-07 0)
(-1.95944e-06 1.59553e-07 0)
(-2.00614e-06 1.60687e-07 0)
(-2.0545e-06 1.61961e-07 0)
(-2.10471e-06 1.63409e-07 0)
(-2.15697e-06 1.65073e-07 0)
(-2.21153e-06 1.67003e-07 0)
(-2.26866e-06 1.69269e-07 0)
(-2.32872e-06 1.71955e-07 0)
(-2.39213e-06 1.75174e-07 0)
(-2.45938e-06 1.79077e-07 0)
(-2.53109e-06 1.83864e-07 0)
(-2.608e-06 1.89807e-07 0)
(-2.69098e-06 1.97274e-07 0)
(-2.78113e-06 2.06768e-07 0)
(-2.87989e-06 2.18953e-07 0)
(-2.98768e-06 2.34511e-07 0)
(-3.09953e-06 2.53603e-07 0)
(-3.20101e-06 2.7457e-07 0)
(-2.52483e-06 2.28141e-07 0)
(-1.04306e-10 4.49146e-09 0)
(3.25011e-09 1.14134e-08 0)
(6.07358e-09 1.70141e-08 0)
(8.20707e-09 2.10582e-08 0)
(9.38439e-09 2.3935e-08 0)
(9.63672e-09 2.59758e-08 0)
(9.1084e-09 2.74483e-08 0)
(7.94e-09 2.85489e-08 0)
(6.23917e-09 2.94113e-08 0)
(4.08222e-09 3.01222e-08 0)
(1.52066e-09 3.07343e-08 0)
(-1.40995e-09 3.12782e-08 0)
(-4.68441e-09 3.17707e-08 0)
(-8.28397e-09 3.22208e-08 0)
(-1.2194e-08 3.26331e-08 0)
(-1.64029e-08 3.30103e-08 0)
(-2.09006e-08 3.33537e-08 0)
(-2.56789e-08 3.36644e-08 0)
(-3.07305e-08 3.3943e-08 0)
(-3.60493e-08 3.41898e-08 0)
(-4.16296e-08 3.44052e-08 0)
(-4.74665e-08 3.45893e-08 0)
(-5.35555e-08 3.4742e-08 0)
(-5.98923e-08 3.48634e-08 0)
(-6.64729e-08 3.49533e-08 0)
(-7.32936e-08 3.50115e-08 0)
(-8.03505e-08 3.50379e-08 0)
(-8.76403e-08 3.50322e-08 0)
(-9.51593e-08 3.49942e-08 0)
(-1.02904e-07 3.49236e-08 0)
(-1.10871e-07 3.48203e-08 0)
(-1.19057e-07 3.46839e-08 0)
(-1.27458e-07 3.45143e-08 0)
(-1.3607e-07 3.43112e-08 0)
(-1.44891e-07 3.40743e-08 0)
(-1.53916e-07 3.38034e-08 0)
(-1.63142e-07 3.34984e-08 0)
(-1.72564e-07 3.31589e-08 0)
(-1.8218e-07 3.27848e-08 0)
(-1.91984e-07 3.23758e-08 0)
(-2.01973e-07 3.19319e-08 0)
(-2.12143e-07 3.14527e-08 0)
(-2.22489e-07 3.09382e-08 0)
(-2.33007e-07 3.03882e-08 0)
(-2.43692e-07 2.98025e-08 0)
(-2.54538e-07 2.91811e-08 0)
(-2.65543e-07 2.85237e-08 0)
(-2.76699e-07 2.78303e-08 0)
(-2.88002e-07 2.71008e-08 0)
(-2.99447e-07 2.63351e-08 0)
(-3.11027e-07 2.55332e-08 0)
(-3.22737e-07 2.46951e-08 0)
(-3.34571e-07 2.38207e-08 0)
(-3.46522e-07 2.291e-08 0)
(-3.58584e-07 2.1963e-08 0)
(-3.7075e-07 2.09798e-08 0)
(-3.83014e-07 1.99605e-08 0)
(-3.95367e-07 1.89051e-08 0)
(-4.07803e-07 1.78139e-08 0)
(-4.20314e-07 1.66868e-08 0)
(-4.32891e-07 1.55241e-08 0)
(-4.45528e-07 1.43261e-08 0)
(-4.58215e-07 1.30928e-08 0)
(-4.70944e-07 1.18248e-08 0)
(-4.83707e-07 1.05221e-08 0)
(-4.96493e-07 9.18528e-09 0)
(-5.09294e-07 7.81465e-09 0)
(-5.221e-07 6.41066e-09 0)
(-5.34902e-07 4.97382e-09 0)
(-5.4769e-07 3.50464e-09 0)
(-5.60453e-07 2.00371e-09 0)
(-5.73181e-07 4.71694e-10 0)
(-5.85863e-07 -1.09071e-09 0)
(-5.9849e-07 -2.68279e-09 0)
(-6.11049e-07 -4.3037e-09 0)
(-6.23531e-07 -5.95256e-09 0)
(-6.35924e-07 -7.62848e-09 0)
(-6.48216e-07 -9.33042e-09 0)
(-6.60397e-07 -1.10574e-08 0)
(-6.72455e-07 -1.28082e-08 0)
(-6.84379e-07 -1.45816e-08 0)
(-6.96156e-07 -1.63765e-08 0)
(-7.07776e-07 -1.81915e-08 0)
(-7.19227e-07 -2.00253e-08 0)
(-7.30498e-07 -2.18763e-08 0)
(-7.41576e-07 -2.3743e-08 0)
(-7.52451e-07 -2.5624e-08 0)
(-7.63111e-07 -2.75175e-08 0)
(-7.73545e-07 -2.94218e-08 0)
(-7.83743e-07 -3.13353e-08 0)
(-7.93692e-07 -3.3256e-08 0)
(-8.03382e-07 -3.51821e-08 0)
(-8.12804e-07 -3.71116e-08 0)