/*--------------------------------*- C++ -*----------------------------------*\
| =========                 |                                                 |
| \\      /  F ield         | OpenFOAM: The Open Source CFD Toolbox           |
|  \\    /   O peration     | Version:  2512                                  |
|   \\  /    A nd           | Website:  www.openfoam.com                      |
|    \\/     M anipulation  |                                                 |
\*---------------------------------------------------------------------------*/
FoamFile
{
    version     2.0;
    format      ascii;
    arch        "LSB;label=32;scalar=64";
    class       volScalarField;
    location    "2978";
    object      p;
}
// * * * * * * * * * * * * * * * * * * * * * * * * * * * * * * * * * * * * * //

dimensions      [0 2 -2 0 0 0 0];

internalField   nonuniform List<scalar> 
66422
(
0.0281542
0.0317184
0.0338604
0.0349655
0.0357044
0.0362432
0.0366473
0.0369625
0.0372173
0.037429
0.0376089
0.0377645
0.0379009
0.0380221
0.0381306
0.0382287
0.0383178
0.0383994
0.0384742
0.0385433
0.0386071
0.0386663
0.0387212
0.0387723
0.0388199
0.0388643
0.0389056
0.0389441
0.0389798
0.039013
0.0390438
0.0390723
0.0390985
0.0391225
0.0391443
0.0391641
0.0391818
0.0391975
0.0392111
0.0392228
0.0392325
0.0392401
0.0392458
0.0392494
0.039251
0.0392506
0.039248
0.0392434
0.0392366
0.0392276
0.0392164
0.0392029
0.0391871
0.039169
0.0391485
0.0391255
0.0391
0.039072
0.0390413
0.039008
0.0389719
0.038933
0.0388912
0.0388466
0.0387989
0.0387482
0.0386943
0.0386373
0.0385771
0.0385135
0.0384465
0.0383761
0.0383022
0.0382247
0.0381435
0.0380587
0.0379701
0.0378777
0.0377813
0.0376811
0.0375769
0.0374686
0.0373562
0.0372396
0.0371189
0.036994
0.0368647
0.0367312
0.0365933
0.036451
0.0363043
0.0361532
0.0359976
0.0358376
0.035673
0.035504
0.0353305
0.0351525
0.03497
0.0347831
0.0345916
0.0343957
0.0341953
0.0339906
0.0337815
0.033568
0.0333502
0.0331282
0.0329019
0.0326715
0.032437
0.0321984
0.0319559
0.0317094
0.0314591
0.031205
0.0309473
0.0306859
0.030421
0.0301528
0.0298811
0.0296063
0.0293283
0.0290473
0.0287633
0.0284766
0.0281871
0.027895
0.0276005
0.0273035
0.0270044
0.026703
0.0263997
0.0260945
0.0257875
0.0254788
0.0251686
0.024857
0.0245441
0.02423
0.0239149
0.0235989
0.0232821
0.0229646
0.0226465
0.022328
0.0220093
0.0216903
0.0213712
0.0210522
0.0207334
0.0204148
0.0200966
0.0197789
0.0194618
0.0191455
0.01883
0.0185154
0.0182018
0.0178894
0.0175783
0.0172684
0.0169601
0.0166532
0.016348
0.0160445
0.0157428
0.015443
0.0151452
0.0148494
0.0145558
0.0142644
0.0139753
0.0136886
0.0134043
0.0131225
0.0128434
0.0125668
0.012293
0.0120219
0.0117537
0.0114884
0.0112259
0.0109665
0.0107101
0.0104568
0.0102067
0.00995966
0.00971587
0.00947531
0.00923804
0.00900407
0.00877345
0.00854618
0.00832231
0.00810185
0.00788483
0.00767125
0.00746113
0.00725448
0.00705133
0.00685166
0.00665548
0.00646281
0.00627364
0.00608796
0.00590577
0.00572707
0.00555184
0.00538008
0.00521178
0.00504691
0.00488545
0.0047274
0.00457273
0.00442141
0.00427343
0.00412875
0.00398734
0.00384918
0.00371423
0.00358247
0.00345384
0.00332833
0.0032059
0.00308649
0.00297008
0.00285662
0.00274608
0.0026384
0.00253355
0.00243147
0.00233213
0.00223549
0.00214148
0.00205007
0.0019612
0.00187484
0.00179092
0.00170941
0.00163026
0.0015534
0.00147881
0.00140642
0.00133619
0.00126807
0.00120202
0.00113797
0.00107589
0.00101573
0.000957443
0.000900976
0.000846287
0.000793329
0.000742058
0.00069243
0.0006444
0.000597926
0.000552965
0.000509477
0.000467421
0.000426757
0.000387448
0.000349456
0.000312745
0.00027728
0.000243028
0.000209956
0.000178034
0.000147231
0.000117522
8.88793e-05
6.12796e-05
3.47008e-05
9.12317e-06
-1.54705e-05
-3.90949e-05
-6.17619e-05
-8.34797e-05
-0.000104253
-0.000124083
-0.000142965
-0.000160889
-0.000177839
-0.00019379
-0.000208709
-0.000222548
-0.000235245
-0.000246718
-0.000256856
-0.00026551
-0.000272473
-0.00027745
-0.000280007
-0.000279477
-0.00027473
-0.000263658
-0.000243645
-0.00021439
-0.000138249
0.0330571
0.03434
0.0352801
0.0359903
0.0365636
0.0370215
0.0373879
0.0376864
0.0379346
0.0381445
0.0383249
0.038482
0.0386204
0.0387437
0.0388544
0.0389545
0.0390455
0.0391288
0.0392054
0.0392759
0.0393411
0.0394016
0.0394577
0.0395099
0.0395585
0.0396037
0.0396458
0.039685
0.0397214
0.0397551
0.0397864
0.0398153
0.0398418
0.0398661
0.0398882
0.0399081
0.0399259
0.0399417
0.0399553
0.0399669
0.0399764
0.0399839
0.0399893
0.0399926
0.0399938
0.0399929
0.0399899
0.0399847
0.0399773
0.0399676
0.0399556
0.0399414
0.0399247
0.0399057
0.0398842
0.0398601
0.0398335
0.0398042
0.0397723
0.0397376
0.0397001
0.0396598
0.0396165
0.0395702
0.0395208
0.0394683
0.0394127
0.0393537
0.0392915
0.0392258
0.0391567
0.0390841
0.0390079
0.038928
0.0388444
0.0387571
0.0386659
0.0385708
0.0384717
0.0383686
0.0382614
0.0381502
0.0380347
0.037915
0.0377911
0.0376628
0.0375302
0.0373933
0.0372518
0.037106
0.0369556
0.0368008
0.0366414
0.0364775
0.036309
0.036136
0.0359585
0.0357763
0.0355896
0.0353984
0.0352026
0.0350024
0.0347976
0.0345884
0.0343747
0.0341566
0.0339342
0.0337075
0.0334765
0.0332413
0.0330019
0.0327585
0.032511
0.0322596
0.0320043
0.0317453
0.0314825
0.031216
0.030946
0.0306726
0.0303958
0.0301158
0.0298326
0.0295463
0.0292572
0.0289651
0.0286704
0.028373
0.0280731
0.0277709
0.0274663
0.0271597
0.026851
0.0265404
0.026228
0.025914
0.0255984
0.0252815
0.0249632
0.0246438
0.0243233
0.024002
0.0236798
0.023357
0.0230336
0.0227099
0.0223858
0.0220615
0.0217372
0.021413
0.0210889
0.0207651
0.0204418
0.0201189
0.0197967
0.0194753
0.0191547
0.0188351
0.0185165
0.0181991
0.017883
0.0175682
0.0172549
0.0169432
0.0166332
0.0163249
0.0160184
0.0157139
0.0154114
0.015111
0.0148128
0.0145169
0.0142233
0.0139321
0.0136434
0.0133572
0.0130737
0.0127929
0.0125148
0.0122396
0.0119672
0.0116977
0.0114313
0.0111679
0.0109075
0.0106503
0.0103963
0.0101455
0.00989795
0.00965369
0.00941277
0.0091752
0.00894103
0.00871027
0.00848296
0.0082591
0.00803873
0.00782186
0.0076085
0.00739867
0.00719237
0.00698961
0.0067904
0.00659473
0.00640262
0.00621405
0.00602902
0.00584752
0.00566955
0.0054951
0.00532414
0.00515667
0.00499266
0.0048321
0.00467496
0.00452123
0.00437086
0.00422385
0.00408016
0.00393976
0.00380261
0.00366868
0.00353794
0.00341036
0.00328588
0.00316448
0.00304611
0.00293074
0.00281831
0.00270879
0.00260213
0.00249829
0.00239722
0.00229887
0.0022032
0.00211016
0.0020197
0.00193177
0.00184633
0.00176332
0.0016827
0.00160441
0.00152841
0.00145465
0.00138307
0.00131364
0.00124629
0.00118099
0.00111767
0.00105631
0.000996836
0.000939216
0.000883398
0.000829338
0.00077699
0.000726308
0.000677249
0.00062977
0.000583828
0.000539382
0.00049639
0.000454815
0.000414616
0.000375757
0.000338201
0.000301914
0.000266862
0.000233013
0.000200336
0.000168802
0.000138384
0.000109057
8.0796e-05
5.35812e-05
2.73933e-05
2.21616e-06
-2.19636e-05
-4.51561e-05
-6.73678e-05
-8.86011e-05
-0.000108854
-0.000128117
-0.000146378
-0.000163613
-0.000179792
-0.000194871
-0.000208792
-0.000221479
-0.000232832
-0.000242714
-0.000250947
-0.000257286
-0.000261389
-0.000262778
-0.000260762
-0.000254244
-0.000241326
-0.00022082
-0.000197558
-0.000135638
0.0343491
0.0345958
0.0349157
0.0353244
0.0357196
0.0360669
0.0363659
0.0366225
0.0368434
0.0370349
0.0372023
0.0373499
0.0374811
0.0375986
0.0377046
0.0378009
0.0378886
0.037969
0.038043
0.0381112
0.0381744
0.0382329
0.0382873
0.0383379
0.038385
0.0384288
0.0384695
0.0385075
0.0385427
0.0385754
0.0386056
0.0386335
0.0386591
0.0386825
0.0387037
0.0387229
0.0387399
0.0387549
0.0387679
0.0387789
0.0387878
0.0387948
0.0387997
0.0388026
0.0388034
0.0388021
0.0387988
0.0387933
0.0387857
0.0387758
0.0387637
0.0387494
0.0387327
0.0387137
0.0386923
0.0386684
0.0386419
0.0386129
0.0385813
0.038547
0.03851
0.0384701
0.0384274
0.0383818
0.0383332
0.0382815
0.0382267
0.0381688
0.0381076
0.0380431
0.0379752
0.0379039
0.0378291
0.0377508
0.0376688
0.0375832
0.0374938
0.0374007
0.0373037
0.0372027
0.0370979
0.036989
0.0368761
0.0367591
0.0366379
0.0365126
0.0363831
0.0362493
0.0361112
0.0359688
0.0358221
0.035671
0.0355155
0.0353556
0.0351914
0.0350227
0.0348497
0.0346722
0.0344903
0.0343041
0.0341134
0.0339184
0.0337191
0.0335155
0.0333076
0.0330954
0.0328791
0.0326586
0.032434
0.0322053
0.0319727
0.0317361
0.0314956
0.0312514
0.0310034
0.0307518
0.0304966
0.0302379
0.0299758
0.0297104
0.0294418
0.02917
0.0288952
0.0286175
0.028337
0.0280537
0.0277679
0.0274795
0.0271888
0.0268957
0.0266005
0.0263033
0.0260041
0.0257031
0.0254004
0.0250962
0.0247904
0.0244834
0.0241751
0.0238657
0.0235553
0.0232441
0.0229321
0.0226195
0.0223065
0.021993
0.0216792
0.0213654
0.0210514
0.0207376
0.0204239
0.0201106
0.0197976
0.0194852
0.0191734
0.0188624
0.0185522
0.0182429
0.0179347
0.0176276
0.0173218
0.0170173
0.0167143
0.0164128
0.0161129
0.0158147
0.0155183
0.0152238
0.0149312
0.0146407
0.0143523
0.0140661
0.0137822
0.0135006
0.0132215
0.0129448
0.0126707
0.0123991
0.0121303
0.0118642
0.0116008
0.0113403
0.0110827
0.010828
0.0105764
0.0103277
0.0100821
0.00983968
0.00960037
0.00936426
0.00913136
0.00890171
0.00867534
0.00845227
0.00823253
0.00801614
0.00780312
0.00759347
0.00738722
0.00718438
0.00698495
0.00678895
0.00659637
0.00640721
0.00622148
0.00603918
0.0058603
0.00568483
0.00551276
0.00534408
0.00517878
0.00501684
0.00485825
0.00470298
0.00455102
0.00440234
0.00425692
0.00411473
0.00397574
0.00383992
0.00370724
0.00357767
0.00345118
0.00332773
0.00320727
0.00308979
0.00297522
0.00286355
0.00275471
0.00264868
0.00254541
0.00244486
0.00234698
0.00225172
0.00215905
0.00206891
0.00198126
0.00189605
0.00181324
0.00173278
0.00165462
0.00157871
0.001505
0.00143346
0.00136402
0.00129665
0.0012313
0.00116792
0.00110645
0.00104687
0.000989115
0.000933146
0.000878918
0.000826387
0.000775509
0.00072624
0.000678539
0.000632364
0.000587675
0.000544431
0.000502595
0.000462127
0.000422991
0.000385152
0.000348574
0.000313226
0.000279073
0.000246087
0.000214238
0.000183498
0.000153842
0.000125246
9.76886e-05
7.11494e-05
4.56116e-05
2.10606e-05
-2.51503e-06
-2.51236e-05
-4.67697e-05
-6.74533e-05
-8.71698e-05
-0.000105909
-0.000123652
-0.000140375
-0.000156043
-0.000170606
-0.000184003
-0.00019615
-0.000206941
-0.000216232
-0.000223839
-0.000229515
-0.000232927
-0.000233632
-0.000231035
-0.000224258
-0.000211781
-0.000193424
-0.00017849
-0.000136106
0.0353379
0.0353256
0.0354414
0.0356896
0.0359626
0.0362243
0.0364655
0.0366834
0.036878
0.0370516
0.0372065
0.0373453
0.0374702
0.0375832
0.0376858
0.0377795
0.0378653
0.0379442
0.0380169
0.0380842
0.0381466
0.0382045
0.0382583
0.0383084
0.0383551
0.0383986
0.038439
0.0384766
0.0385116
0.038544
0.038574
0.0386016
0.038627
0.0386501
0.0386711
0.03869
0.0387068
0.0387216
0.0387343
0.038745
0.0387537
0.0387604
0.038765
0.0387675
0.038768
0.0387665
0.0387628
0.0387569
0.0387489
0.0387387
0.0387263
0.0387115
0.0386945
0.038675
0.0386532
0.0386288
0.0386019
0.0385725
0.0385404
0.0385056
0.0384681
0.0384277
0.0383845
0.0383383
0.0382892
0.0382369
0.0381816
0.0381231
0.0380613
0.0379962
0.0379277
0.0378558
0.0377805
0.0377015
0.0376189
0.0375327
0.0374427
0.0373489
0.0372512
0.0371497
0.0370442
0.0369347
0.0368212
0.0367035
0.0365818
0.0364558
0.0363256
0.0361912
0.0360526
0.0359096
0.0357623
0.0356106
0.0354546
0.0352942
0.0351294
0.0349602
0.0347867
0.0346087
0.0344264
0.0342397
0.0340486
0.0338532
0.0336535
0.0334495
0.0332413
0.0330288
0.0328122
0.0325914
0.0323666
0.0321378
0.0319049
0.0316682
0.0314277
0.0311833
0.0309353
0.0306836
0.0304284
0.0301698
0.0299078
0.0296425
0.029374
0.0291024
0.0288278
0.0285503
0.0282701
0.0279871
0.0277016
0.0274136
0.0271232
0.0268306
0.0265358
0.026239
0.0259404
0.0256399
0.0253378
0.0250341
0.0247289
0.0244225
0.0241149
0.0238062
0.0234965
0.023186
0.0228748
0.022563
0.0222507
0.021938
0.0216251
0.0213121
0.020999
0.020686
0.0203733
0.0200608
0.0197488
0.0194373
0.0191265
0.0188164
0.0185072
0.0181989
0.0178916
0.0175856
0.0172808
0.0169773
0.0166753
0.0163748
0.0160759
0.0157787
0.0154834
0.0151899
0.0148984
0.0146089
0.0143216
0.0140364
0.0137535
0.013473
0.0131949
0.0129192
0.0126461
0.0123756
0.0121078
0.0118427
0.0115803
0.0113208
0.0110642
0.0108106
0.0105599
0.0103122
0.0100676
0.00982611
0.00958776
0.00935258
0.00912062
0.0088919
0.00866644
0.00844428
0.00822543
0.00800992
0.00779776
0.00758897
0.00738356
0.00718154
0.00698292
0.00678772
0.00659592
0.00640753
0.00622256
0.00604099
0.00586283
0.00568807
0.00551669
0.00534868
0.00518404
0.00502274
0.00486477
0.00471011
0.00455874
0.00441063
0.00426576
0.0041241
0.00398563
0.00385031
0.00371812
0.00358902
0.00346297
0.00333995
0.00321991
0.00310282
0.00298863
0.00287732
0.00276883
0.00266312
0.00256016
0.0024599
0.0023623
0.00226731
0.00217488
0.00208497
0.00199754
0.00191253
0.0018299
0.00174961
0.00167161
0.00159584
0.00152227
0.00145084
0.00138151
0.00131423
0.00124895
0.00118564
0.00112423
0.00106469
0.00100697
0.000951024
0.000896811
0.000844284
0.000793401
0.00074412
0.000696398
0.000650194
0.000605468
0.000562181
0.000520294
0.00047977
0.000440573
0.000402667
0.000366018
0.000330593
0.000296361
0.000263291
0.000231356
0.000200528
0.000170783
0.000142096
0.000114447
8.7817e-05
6.21894e-05
3.75505e-05
1.38896e-05
-8.80045e-06
-3.05232e-05
-5.12775e-05
-7.10575e-05
-8.98509e-05
-0.000107639
-0.000124395
-0.00014008
-0.000154646
-0.000168029
-0.000180144
-0.000190885
-0.000200114
-0.000207654
-0.000213279
-0.000216697
-0.000217537
-0.000215346
-0.000209487
-0.000198791
-0.000183861
-0.000176807
-0.000145436
0.0360131
0.0359372
0.0359556
0.0360988
0.0362825
0.0364751
0.0366652
0.0368455
0.0370129
0.0371666
0.037307
0.0374352
0.0375521
0.0376591
0.0377572
0.0378473
0.0379304
0.0380071
0.0380781
0.038144
0.0382053
0.0382623
0.0383153
0.0383648
0.0384109
0.0384539
0.0384939
0.0385312
0.0385658
0.0385979
0.0386276
0.0386549
0.03868
0.038703
0.0387237
0.0387424
0.0387589
0.0387735
0.0387859
0.0387964
0.0388048
0.0388112
0.0388155
0.0388178
0.038818
0.0388161
0.0388121
0.038806
0.0387976
0.0387871
0.0387743
0.0387591
0.0387417
0.0387218
0.0386995
0.0386747
0.0386474
0.0386174
0.0385849
0.0385496
0.0385115
0.0384706
0.0384268
0.0383801
0.0383303
0.0382775
0.0382215
0.0381624
0.0381
0.0380342
0.037965
0.0378924
0.0378163
0.0377367
0.0376533
0.0375663
0.0374755
0.037381
0.0372825
0.0371802
0.0370739
0.0369636
0.0368492
0.0367307
0.0366081
0.0364812
0.0363502
0.0362149
0.0360754
0.0359315
0.0357833
0.0356307
0.0354738
0.0353125
0.0351469
0.0349768
0.0348023
0.0346235
0.0344403
0.0342527
0.0340608
0.0338645
0.0336639
0.0334591
0.03325
0.0330368
0.0328193
0.0325978
0.0323722
0.0321426
0.031909
0.0316715
0.0314303
0.0311852
0.0309365
0.0306842
0.0304284
0.0301691
0.0299065
0.0296406
0.0293716
0.0290994
0.0288243
0.0285464
0.0282656
0.0279823
0.0276963
0.0274079
0.0271172
0.0268242
0.0265291
0.0262321
0.0259331
0.0256324
0.02533
0.0250261
0.0247208
0.0244143
0.0241065
0.0237977
0.0234879
0.0231774
0.0228661
0.0225543
0.022242
0.0219293
0.0216164
0.0213034
0.0209904
0.0206776
0.0203649
0.0200526
0.0197407
0.0194294
0.0191187
0.0188088
0.0184998
0.0181917
0.0178847
0.0175789
0.0172743
0.0169711
0.0166693
0.0163691
0.0160706
0.0157737
0.0154787
0.0151855
0.0148943
0.0146052
0.0143182
0.0140334
0.0137509
0.0134707
0.013193
0.0129177
0.012645
0.0123749
0.0121075
0.0118428
0.0115808
0.0113218
0.0110656
0.0108123
0.010562
0.0103148
0.0100706
0.00982952
0.00959159
0.00935683
0.00912529
0.00889698
0.00867194
0.00845019
0.00823175
0.00801665
0.0078049
0.00759651
0.0073915
0.00718988
0.00699166
0.00679684
0.00660542
0.00641741
0.00623281
0.00605161
0.00587381
0.00569939
0.00552836
0.00536069
0.00519638
0.00503541
0.00487775
0.0047234
0.00457232
0.0044245
0.00427992
0.00413853
0.00400032
0.00386526
0.00373331
0.00360444
0.00347861
0.0033558
0.00323597
0.00311907
0.00300507
0.00289393
0.0027856
0.00268005
0.00257723
0.00247711
0.00237962
0.00228474
0.00219242
0.0021026
0.00201525
0.00193032
0.00184776
0.00176752
0.00168956
0.00161383
0.00154028
0.00146887
0.00139955
0.00133227
0.00126699
0.00120366
0.00114223
0.00108266
0.0010249
0.000968912
0.000914646
0.000862062
0.000811114
0.000761762
0.000713964
0.000667678
0.000622865
0.000579486
0.000537503
0.000496878
0.000457575
0.00041956
0.000382798
0.000347258
0.000312907
0.000279717
0.000247659
0.000216706
0.000186835
0.000158021
0.000130244
0.000103486
7.77309e-05
5.29651e-05
2.91785e-05
6.36443e-06
-1.54801e-05
-3.63536e-05
-5.62496e-05
-7.51558e-05
-9.30528e-05
-0.000109914
-0.000125701
-0.000140368
-0.000153851
-0.000166072
-0.00017693
-0.000186302
-0.00019403
-0.000199922
-0.00020374
-0.000205203
-0.000203996
-0.000199691
-0.000191374
-0.000180208
-0.000180332
-0.000156568
0.0364501
0.0363636
0.0363337
0.0364116
0.036533
0.0366726
0.0368197
0.0369663
0.0371075
0.0372411
0.037366
0.0374822
0.0375899
0.0376897
0.0377821
0.0378677
0.0379472
0.038021
0.0380896
0.0381536
0.0382132
0.0382688
0.0383207
0.0383692
0.0384144
0.0384567
0.0384961
0.0385328
0.0385669
0.0385985
0.0386278
0.0386548
0.0386795
0.0387021
0.0387226
0.0387409
0.0387572
0.0387714
0.0387837
0.0387938
0.038802
0.0388081
0.0388122
0.0388142
0.0388141
0.0388119
0.0388077
0.0388012
0.0387926
0.0387817
0.0387686
0.0387531
0.0387353
0.0387151
0.0386925
0.0386673
0.0386396
0.0386093
0.0385763
0.0385406
0.0385021
0.0384608
0.0384166
0.0383694
0.0383192
0.0382659
0.0382094
0.0381498
0.0380868
0.0380205
0.0379509
0.0378777
0.0378011
0.0377208
0.0376369
0.0375493
0.037458
0.0373628
0.0372637
0.0371608
0.0370538
0.0369429
0.0368278
0.0367087
0.0365854
0.0364579
0.0363263
0.0361903
0.0360501
0.0359055
0.0357567
0.0356034
0.0354459
0.0352839
0.0351176
0.0349468
0.0347717
0.0345922
0.0344084
0.0342202
0.0340276
0.0338307
0.0336296
0.0334241
0.0332145
0.0330006
0.0327826
0.0325606
0.0323344
0.0321043
0.0318702
0.0316323
0.0313906
0.0311451
0.030896
0.0306433
0.0303871
0.0301275
0.0298646
0.0295984
0.0293291
0.0290567
0.0287814
0.0285032
0.0282223
0.0279388
0.0276527
0.0273642
0.0270734
0.0267804
0.0264853
0.0261883
0.0258894
0.0255887
0.0252865
0.0249827
0.0246775
0.0243711
0.0240635
0.0237549
0.0234454
0.0231351
0.0228241
0.0225126
0.0222006
0.0218883
0.0215758
0.0212632
0.0209506
0.0206382
0.020326
0.0200141
0.0197027
0.0193919
0.0190818
0.0187724
0.0184639
0.0181564
0.01785
0.0175447
0.0172408
0.0169382
0.0166371
0.0163375
0.0160396
0.0157434
0.015449
0.0151565
0.014866
0.0145776
0.0142913
0.0140072
0.0137254
0.013446
0.013169
0.0128944
0.0126224
0.0123531
0.0120864
0.0118224
0.0115612
0.0113029
0.0110474
0.0107949
0.0105454
0.0102989
0.0100554
0.00981511
0.00957792
0.00934391
0.0091131
0.00888552
0.00866121
0.00844019
0.00822247
0.00800809
0.00779704
0.00758936
0.00738505
0.00718412
0.00698658
0.00679244
0.00660169
0.00641435
0.0062304
0.00604984
0.00587267
0.00569889
0.00552847
0.00536141
0.00519769
0.0050373
0.00488022
0.00472643
0.0045759
0.00442862
0.00428456
0.00414369
0.00400598
0.0038714
0.00373993
0.00361152
0.00348615
0.00336377
0.00324436
0.00312787
0.00301427
0.00290351
0.00279555
0.00269036
0.00258788
0.00248808
0.00239092
0.00229634
0.0022043
0.00211476
0.00202767
0.00194298
0.00186066
0.00178064
0.00170289
0.00162736
0.00155399
0.00148276
0.0014136
0.00134647
0.00128132
0.00121812
0.0011568
0.00109734
0.00103967
0.000983766
0.000929574
0.000877053
0.000826159
0.000776852
0.000729089
0.00068283
0.000638035
0.000594667
0.000552686
0.000512055
0.000472741
0.000434706
0.000397918
0.000362346
0.000327957
0.000294722
0.000262615
0.000231607
0.000201676
0.000172797
0.000144952
0.000118121
9.22882e-05
6.74414e-05
4.35701e-05
2.06676e-05
-1.26911e-06
-2.22387e-05
-4.2235e-05
-6.12465e-05
-7.92549e-05
-9.62347e-05
-0.000112152
-0.000126961
-0.000140607
-0.000153018
-0.000164107
-0.000173767
-0.000181868
-0.000188259
-0.000192757
-0.000195166
-0.000195293
-0.000192865
-0.000187125
-0.000179615
-0.000186139
-0.000168193
0.0367624
0.036685
0.0366362
0.0366764
0.0367564
0.0368573
0.0369703
0.0370883
0.0372061
0.0373208
0.0374306
0.0375347
0.0376328
0.0377248
0.0378109
0.0378914
0.0379667
0.0380371
0.038103
0.0381645
0.0382222
0.0382761
0.0383266
0.0383739
0.0384181
0.0384594
0.0384981
0.038534
0.0385675
0.0385986
0.0386274
0.0386539
0.0386783
0.0387005
0.0387206
0.0387386
0.0387546
0.0387685
0.0387805
0.0387904
0.0387982
0.0388041
0.0388079
0.0388097
0.0388094
0.0388069
0.0388024
0.0387957
0.0387868
0.0387756
0.0387622
0.0387465
0.0387284
0.0387079
0.038685
0.0386595
0.0386315
0.0386009
0.0385676
0.0385315
0.0384927
0.038451
0.0384064
0.0383588
0.0383082
0.0382545
0.0381976
0.0381375
0.0380742
0.0380074
0.0379373
0.0378637
0.0377865
0.0377057
0.0376213
0.0375332
0.0374413
0.0373456
0.037246
0.0371425
0.037035
0.0369234
0.0368078
0.0366881
0.0365642
0.0364361
0.0363038
0.0361672
0.0360263
0.0358811
0.0357316
0.0355778
0.0354195
0.0352569
0.0350899
0.0349185
0.0347428
0.0345626
0.0343781
0.0341893
0.0339961
0.0337986
0.0335968
0.0333908
0.0331805
0.032966
0.0327475
0.0325248
0.0322981
0.0320674
0.0318328
0.0315944
0.0313522
0.0311062
0.0308566
0.0306035
0.0303468
0.0300868
0.0298235
0.0295569
0.0292873
0.0290146
0.028739
0.0284605
0.0281794
0.0278956
0.0276093
0.0273206
0.0270297
0.0267365
0.0264413
0.0261442
0.0258452
0.0255445
0.0252423
0.0249385
0.0246334
0.024327
0.0240195
0.0237111
0.0234017
0.0230916
0.0227808
0.0224694
0.0221577
0.0218457
0.0215334
0.0212211
0.0209089
0.0205968
0.0202849
0.0199734
0.0196625
0.0193521
0.0190423
0.0187334
0.0184254
0.0181184
0.0178125
0.0175078
0.0172043
0.0169023
0.0166017
0.0163027
0.0160054
0.0157098
0.0154161
0.0151242
0.0148343
0.0145465
0.0142609
0.0139775
0.0136963
0.0134176
0.0131412
0.0128674
0.0125961
0.0123274
0.0120614
0.0117981
0.0115377
0.0112801
0.0110253
0.0107735
0.0105247
0.0102789
0.0100362
0.00979662
0.00956016
0.00932687
0.00909679
0.00886994
0.00864635
0.00842605
0.00820905
0.00799538
0.00778506
0.00757808
0.00737448
0.00717425
0.00697741
0.00678396
0.0065939
0.00640723
0.00622396
0.00604407
0.00586756
0.00569442
0.00552465
0.00535822
0.00519513
0.00503536
0.00487889
0.00472569
0.00457576
0.00442905
0.00428556
0.00414524
0.00400808
0.00387404
0.00374309
0.00361519
0.00349031
0.00336843
0.00324949
0.00313346
0.0030203
0.00290998
0.00280244
0.00269766
0.00259558
0.00249616
0.00239936
0.00230514
0.00221344
0.00212423
0.00203746
0.00195308
0.00187104
0.0017913
0.00171382
0.00163854
0.00156541
0.0014944
0.00142546
0.00135853
0.00129357
0.00123055
0.0011694
0.00111009
0.00105257
0.000996795
0.000942725
0.000890315
0.000839523
0.000790306
0.000742624
0.000696436
0.000651704
0.000608387
0.00056645
0.000525855
0.000486566
0.000448549
0.000411772
0.000376201
0.000341807
0.000308559
0.000276431
0.000245396
0.00021543
0.00018651
0.000158616
0.00013173
0.000105835
8.09191e-05
5.69713e-05
3.39847e-05
1.19556e-05
-9.11545e-06
-2.92234e-05
-4.83582e-05
-6.65038e-05
-8.36378e-05
-9.97298e-05
-0.000114741
-0.000128623
-0.000141315
-0.000152746
-0.000162828
-0.000171462
-0.000178533
-0.000183915
-0.000187482
-0.000189136
-0.000188715
-0.000185538
-0.000181406
-0.00019359
-0.000180186
0.0370028
0.0369397
0.0368857
0.0369046
0.0369575
0.0370305
0.0371173
0.037212
0.0373097
0.0374075
0.0375032
0.0375956
0.0376841
0.0377682
0.0378478
0.0379229
0.0379938
0.0380604
0.0381231
0.0381821
0.0382375
0.0382896
0.0383384
0.0383843
0.0384273
0.0384676
0.0385053
0.0385404
0.0385732
0.0386037
0.0386319
0.0386579
0.0386818
0.0387036
0.0387233
0.038741
0.0387566
0.0387703
0.0387819
0.0387915
0.0387992
0.0388048
0.0388084
0.0388099
0.0388093
0.0388067
0.0388019
0.038795
0.0387859
0.0387745
0.0387609
0.0387449
0.0387266
0.0387059
0.0386827
0.0386569
0.0386287
0.0385977
0.0385641
0.0385278
0.0384887
0.0384467
0.0384018
0.0383539
0.0383029
0.0382489
0.0381916
0.0381312
0.0380674
0.0380003
0.0379297
0.0378557
0.0377781
0.0376969
0.037612
0.0375234
0.037431
0.0373348
0.0372347
0.0371306
0.0370226
0.0369105
0.0367943
0.036674
0.0365495
0.0364208
0.0362879
0.0361507
0.0360092
0.0358634
0.0357133
0.0355588
0.0353999
0.0352366
0.0350689
0.0348969
0.0347205
0.0345397
0.0343545
0.0341649
0.0339711
0.0337729
0.0335704
0.0333637
0.0331528
0.0329377
0.0327184
0.0324951
0.0322678
0.0320365
0.0318013
0.0315622
0.0313194
0.0310728
0.0308227
0.030569
0.0303118
0.0300512
0.0297874
0.0295204
0.0292502
0.0289771
0.028701
0.0284222
0.0281406
0.0278565
0.0275699
0.0272809
0.0269896
0.0266962
0.0264008
0.0261034
0.0258042
0.0255034
0.025201
0.0248971
0.0245919
0.0242854
0.0239779
0.0236694
0.02336
0.0230499
0.0227392
0.0224279
0.0221163
0.0218044
0.0214923
0.0211801
0.0208681
0.0205562
0.0202446
0.0199333
0.0196226
0.0193125
0.0190031
0.0186945
0.0183869
0.0180802
0.0177747
0.0174704
0.0171674
0.0168658
0.0165656
0.0162671
0.0159703
0.0156752
0.0153819
0.0150906
0.0148013
0.014514
0.0142289
0.0139461
0.0136655
0.0133873
0.0131116
0.0128383
0.0125676
0.0122996
0.0120342
0.0117716
0.0115118
0.0112548
0.0110007
0.0107496
0.0105015
0.0102563
0.0100143
0.00977537
0.00953959
0.00930698
0.00907759
0.00885143
0.00862853
0.00840892
0.00819261
0.00797963
0.00776999
0.0075637
0.00736079
0.00716124
0.00696509
0.00677231
0.00658293
0.00639694
0.00621433
0.00603511
0.00585926
0.00568678
0.00551765
0.00535187
0.00518941
0.00503027
0.00487442
0.00472184
0.00457251
0.0044264
0.00428349
0.00414376
0.00400716
0.00387368
0.00374328
0.00361592
0.00349157
0.0033702
0.00325177
0.00313624
0.00302356
0.00291371
0.00280664
0.0027023
0.00260065
0.00250166
0.00240527
0.00231145
0.00222014
0.0021313
0.00204489
0.00196085
0.00187915
0.00179973
0.00172256
0.00164757
0.00157473
0.00150399
0.00143531
0.00136863
0.00130391
0.0012411
0.00118016
0.00112105
0.00106372
0.00100812
0.000954212
0.000901955
0.000851304
0.000802218
0.000754656
0.000708577
0.000663944
0.000620716
0.000578858
0.000538332
0.000499103
0.000461136
0.000424399
0.00038886
0.000354488
0.000321254
0.00028913
0.00025809
0.000228111
0.000199169
0.000171243
0.000144316
0.000118371
9.33945e-05
6.93756e-05
4.63064e-05
2.41824e-05
3.00271e-06
-1.72294e-05
-3.65062e-05
-5.48147e-05
-7.21363e-05
-8.84462e-05
-0.000103712
-0.000117895
-0.000130947
-0.00014281
-0.000153421
-0.000162707
-0.000170589
-0.000176987
-0.000181832
-0.000185098
-0.000186694
-0.000185962
-0.000184892
-0.000202117
-0.000192375
0.0371965
0.0371472
0.0370935
0.0371005
0.0371358
0.037189
0.0372559
0.0373319
0.0374128
0.0374958
0.0375788
0.0376605
0.0377398
0.0378161
0.0378892
0.0379589
0.0380251
0.0380878
0.0381472
0.0382033
0.0382563
0.0383062
0.0383533
0.0383976
0.0384393
0.0384784
0.0385151
0.0385493
0.0385813
0.0386111
0.0386387
0.0386641
0.0386875
0.0387089
0.0387282
0.0387455
0.0387608
0.0387741
0.0387855
0.0387948
0.0388022
0.0388076
0.0388109
0.0388123
0.0388115
0.0388087
0.0388037
0.0387966
0.0387873
0.0387757
0.0387619
0.0387457
0.0387272
0.0387063
0.0386829
0.038657
0.0386285
0.0385974
0.0385636
0.038527
0.0384876
0.0384454
0.0384002
0.038352
0.0383008
0.0382464
0.0381889
0.0381281
0.038064
0.0379966
0.0379257
0.0378513
0.0377733
0.0376917
0.0376064
0.0375174
0.0374246
0.0373279
0.0372273
0.0371228
0.0370142
0.0369016
0.0367849
0.0366641
0.0365391
0.0364098
0.0362763
0.0361385
0.0359964
0.03585
0.0356992
0.0355441
0.0353845
0.0352206
0.0350523
0.0348796
0.0347024
0.0345209
0.0343351
0.0341448
0.0339502
0.0337513
0.0335482
0.0333407
0.0331291
0.0329133
0.0326933
0.0324693
0.0322413
0.0320092
0.0317733
0.0315336
0.0312901
0.0310429
0.030792
0.0305377
0.0302799
0.0300187
0.0297543
0.0294866
0.0292159
0.0289422
0.0286656
0.0283863
0.0281042
0.0278196
0.0275325
0.0272431
0.0269514
0.0266576
0.0263618
0.0260641
0.0257646
0.0254635
0.0251608
0.0248567
0.0245512
0.0242446
0.0239369
0.0236282
0.0233188
0.0230085
0.0226977
0.0223864
0.0220748
0.0217629
0.0214508
0.0211387
0.0208267
0.0205149
0.0202034
0.0198924
0.0195818
0.0192719
0.0189627
0.0186543
0.0183469
0.0180405
0.0177353
0.0174313
0.0171286
0.0168274
0.0165276
0.0162295
0.015933
0.0156383
0.0153455
0.0150546
0.0147657
0.014479
0.0141944
0.013912
0.0136319
0.0133543
0.0130791
0.0128064
0.0125362
0.0122688
0.012004
0.0117419
0.0114827
0.0112263
0.0109729
0.0107224
0.0104748
0.0102304
0.00998896
0.00975068
0.00951555
0.0092836
0.00905486
0.00882936
0.00860713
0.00838819
0.00817256
0.00796025
0.00775129
0.00754569
0.00734345
0.00714459
0.00694911
0.00675702
0.00656832
0.00638301
0.00620108
0.00602253
0.00584735
0.00567554
0.00550708
0.00534196
0.00518016
0.00502167
0.00486646
0.00471452
0.00456583
0.00442035
0.00427806
0.00413894
0.00400295
0.00387006
0.00374025
0.00361347
0.00348969
0.00336888
0.00325099
0.003136
0.00302385
0.00291452
0.00280795
0.00270411
0.00260294
0.00250442
0.00240849
0.00231511
0.00222424
0.00213582
0.00204982
0.00196618
0.00188487
0.00180582
0.001729
0.00165437
0.00158186
0.00151144
0.00144306
0.00137668
0.00131224
0.0012497
0.00118903
0.00113016
0.00107306
0.00101768
0.000963984
0.000911924
0.000861458
0.000812545
0.000765145
0.000719218
0.000674724
0.000631624
0.000589883
0.000549463
0.000510329
0.000472447
0.000435784
0.000400309
0.000365989
0.000332797
0.000300705
0.000269686
0.000239716
0.000210773
0.000182835
0.000155883
0.000129902
0.000104876
8.07933e-05
5.76457e-05
3.5427e-05
1.41344e-05
-6.23096e-06
-2.56643e-05
-4.41562e-05
-6.1693e-05
-7.82555e-05
-9.38194e-05
-0.000108355
-0.000121826
-0.000134193
-0.000145411
-0.000155431
-0.000164208
-0.000171697
-0.000177874
-0.000182764
-0.000186318
-0.000187872
-0.000189561
-0.000211321
-0.000204628
0.0373584
0.0373207
0.0372697
0.0372701
0.0372939
0.037333
0.037385
0.0374462
0.0375133
0.0375837
0.0376555
0.0377273
0.0377981
0.0378671
0.0379339
0.0379981
0.0380596
0.0381184
0.0381743
0.0382275
0.0382779
0.0383257
0.0383709
0.0384135
0.0384537
0.0384916
0.0385271
0.0385604
0.0385915
0.0386205
0.0386475
0.0386723
0.0386952
0.038716
0.0387349
0.0387518
0.0387668
0.0387798
0.0387909
0.0388
0.0388071
0.0388123
0.0388154
0.0388166
0.0388156
0.0388126
0.0388075
0.0388002
0.0387908
0.0387791
0.0387651
0.0387488
0.0387302
0.0387091
0.0386855
0.0386595
0.0386308
0.0385995
0.0385655
0.0385288
0.0384893
0.0384468
0.0384014
0.0383531
0.0383016
0.038247
0.0381893
0.0381282
0.0380639