/*--------------------------------*- C++ -*----------------------------------*\
| =========                 |                                                 |
| \\      /  F ield         | OpenFOAM: The Open Source CFD Toolbox           |
|  \\    /   O peration     | Version:  2512                                  |
|   \\  /    A nd           | Website:  www.openfoam.com                      |
|    \\/     M anipulation  |                                                 |
\*---------------------------------------------------------------------------*/
FoamFile
{
    version     2.0;
    format      ascii;
    arch        "LSB;label=32;scalar=64";
    class       surfaceScalarField;
    location    "2978";
    object      phi;
}
// * * * * * * * * * * * * * * * * * * * * * * * * * * * * * * * * * * * * * //

dimensions      [0 3 -1 0 0 0 0];

oriented        oriented;

internalField   nonuniform List<scalar> 
137571
(
0.000296427
3.96954e-05
0.000296297
3.82967e-05
0.000296333
3.78896e-05
0.000296405
3.77279e-05
0.000296475
3.76459e-05
0.000296534
3.75971e-05
0.000296581
3.75629e-05
0.000296619
3.75363e-05
0.000296651
3.75143e-05
0.000296677
3.74955e-05
0.000296699
3.74791e-05
0.000296719
3.74645e-05
0.000296736
3.74514e-05
0.000296751
3.74396e-05
0.000296764
3.74289e-05
0.000296777
3.74191e-05
0.000296788
3.741e-05
0.000296799
3.74017e-05
0.000296809
3.73939e-05
0.000296818
3.73867e-05
0.000296826
3.73801e-05
0.000296835
3.73738e-05
0.000296842
3.7368e-05
0.00029685
3.73625e-05
0.000296857
3.73574e-05
0.000296864
3.73526e-05
0.000296871
3.73481e-05
0.000296878
3.7344e-05
0.000296884
3.734e-05
0.000296891
3.73364e-05
0.000296897
3.7333e-05
0.000296904
3.73298e-05
0.00029691
3.73269e-05
0.000296916
3.73242e-05
0.000296923
3.73217e-05
0.000296929
3.73194e-05
0.000296936
3.73174e-05
0.000296942
3.73156e-05
0.000296949
3.73139e-05
0.000296955
3.73125e-05
0.000296962
3.73114e-05
0.000296969
3.73104e-05
0.000296976
3.73096e-05
0.000296983
3.73091e-05
0.000296991
3.73087e-05
0.000296998
3.73086e-05
0.000297006
3.73087e-05
0.000297014
3.73091e-05
0.000297022
3.73096e-05
0.00029703
3.73105e-05
0.000297038
3.73115e-05
0.000297047
3.73128e-05
0.000297056
3.73144e-05
0.000297065
3.73162e-05
0.000297075
3.73182e-05
0.000297085
3.73206e-05
0.000297095
3.73232e-05
0.000297105
3.73261e-05
0.000297116
3.73292e-05
0.000297127
3.73327e-05
0.000297138
3.73365e-05
0.000297149
3.73406e-05
0.000297161
3.7345e-05
0.000297173
3.73497e-05
0.000297186
3.73548e-05
0.000297199
3.73602e-05
0.000297212
3.73659e-05
0.000297226
3.7372e-05
0.00029724
3.73785e-05
0.000297254
3.73853e-05
0.000297269
3.73926e-05
0.000297284
3.74002e-05
0.000297299
3.74082e-05
0.000297315
3.74166e-05
0.000297331
3.74254e-05
0.000297348
3.74346e-05
0.000297364
3.74443e-05
0.000297382
3.74543e-05
0.000297399
3.74649e-05
0.000297417
3.74759e-05
0.000297436
3.74873e-05
0.000297455
3.74992e-05
0.000297474
3.75115e-05
0.000297493
3.75244e-05
0.000297513
3.75377e-05
0.000297533
3.75515e-05
0.000297554
3.75658e-05
0.000297574
3.75805e-05
0.000297596
3.75958e-05
0.000297617
3.76116e-05
0.000297639
3.76279e-05
0.000297661
3.76447e-05
0.000297683
3.7662e-05
0.000297706
3.76798e-05
0.000297729
3.76982e-05
0.000297752
3.77171e-05
0.000297775
3.77364e-05
0.000297799
3.77564e-05
0.000297823
3.77768e-05
0.000297847
3.77977e-05
0.000297871
3.78192e-05
0.000297895
3.78412e-05
0.00029792
3.78637e-05
0.000297945
3.78867e-05
0.000297969
3.79103e-05
0.000297994
3.79343e-05
0.000298019
3.79589e-05
0.000298044
3.79839e-05
0.000298069
3.80095e-05
0.000298094
3.80355e-05
0.000298119
3.8062e-05
0.000298144
3.8089e-05
0.000298169
3.81164e-05
0.000298194
3.81444e-05
0.000298219
3.81727e-05
0.000298244
3.82015e-05
0.000298269
3.82308e-05
0.000298294
3.82604e-05
0.000298318
3.82905e-05
0.000298342
3.8321e-05
0.000298367
3.83519e-05
0.000298391
3.83831e-05
0.000298414
3.84148e-05
0.000298438
3.84468e-05
0.000298461
3.84791e-05
0.000298484
3.85118e-05
0.000298507
3.85447e-05
0.00029853
3.8578e-05
0.000298552
3.86116e-05
0.000298574
3.86455e-05
0.000298595
3.86797e-05
0.000298616
3.87141e-05
0.000298637
3.87487e-05
0.000298658
3.87836e-05
0.000298678
3.88186e-05
0.000298697
3.88539e-05
0.000298717
3.88894e-05
0.000298735
3.8925e-05
0.000298754
3.89608e-05
0.000298772
3.89967e-05
0.000298789
3.90327e-05
0.000298806
3.90689e-05
0.000298823
3.91051e-05
0.000298839
3.91415e-05
0.000298855
3.91779e-05
0.00029887
3.92143e-05
0.000298885
3.92508e-05
0.000298899
3.92874e-05
0.000298913
3.93239e-05
0.000298926
3.93604e-05
0.000298939
3.9397e-05
0.000298951
3.94335e-05
0.000298962
3.94699e-05
0.000298973
3.95063e-05
0.000298984
3.95426e-05
0.000298994
3.95789e-05
0.000299004
3.9615e-05
0.000299013
3.96511e-05
0.000299021
3.9687e-05
0.000299029
3.97228e-05
0.000299037
3.97585e-05
0.000299044
3.9794e-05
0.00029905
3.98293e-05
0.000299056
3.98645e-05
0.000299062
3.98995e-05
0.000299066
3.99343e-05
0.000299071
3.99689e-05
0.000299075
4.00032e-05
0.000299078
4.00373e-05
0.000299081
4.00712e-05
0.000299083
4.01049e-05
0.000299085
4.01383e-05
0.000299086
4.01714e-05
0.000299087
4.02043e-05
0.000299088
4.02369e-05
0.000299087
4.02692e-05
0.000299087
4.03011e-05
0.000299086
4.03328e-05
0.000299084
4.03642e-05
0.000299082
4.03953e-05
0.00029908
4.0426e-05
0.000299077
4.04564e-05
0.000299074
4.04865e-05
0.00029907
4.05162e-05
0.000299066
4.05455e-05
0.000299061
4.05746e-05
0.000299056
4.06032e-05
0.00029905
4.06315e-05
0.000299045
4.06594e-05
0.000299038
4.06869e-05
0.000299032
4.07141e-05
0.000299025
4.07409e-05
0.000299017
4.07673e-05
0.00029901
4.07933e-05
0.000299002
4.08189e-05
0.000298993
4.08441e-05
0.000298985
4.08689e-05
0.000298976
4.08934e-05
0.000298966
4.09174e-05
0.000298957
4.0941e-05
0.000298947
4.09642e-05
0.000298937
4.0987e-05
0.000298926
4.10094e-05
0.000298915
4.10314e-05
0.000298904
4.1053e-05
0.000298893
4.10742e-05
0.000298882
4.1095e-05
0.00029887
4.11154e-05
0.000298858
4.11354e-05
0.000298846
4.1155e-05
0.000298834
4.11742e-05
0.000298821
4.1193e-05
0.000298809
4.12114e-05
0.000298796
4.12294e-05
0.000298783
4.1247e-05
0.00029877
4.12642e-05
0.000298756
4.1281e-05
0.000298743
4.12975e-05
0.00029873
4.13135e-05
0.000298716
4.13292e-05
0.000298702
4.13445e-05
0.000298689
4.13595e-05
0.000298675
4.13741e-05
0.000298661
4.13883e-05
0.000298647
4.14022e-05
0.000298633
4.14157e-05
0.000298619
4.14289e-05
0.000298605
4.14417e-05
0.000298591
4.14542e-05
0.000298577
4.14664e-05
0.000298563
4.14782e-05
0.000298549
4.14897e-05
0.000298534
4.15009e-05
0.00029852
4.15118e-05
0.000298506
4.15224e-05
0.000298492
4.15327e-05
0.000298478
4.15427e-05
0.000298464
4.15524e-05
0.00029845
4.15618e-05
0.000298437
4.1571e-05
0.000298423
4.15798e-05
0.000298409
4.15884e-05
0.000298395
4.15968e-05
0.000298382
4.16049e-05
0.000298368
4.16127e-05
0.000298355
4.16203e-05
0.000298341
4.16277e-05
0.000298328
4.16348e-05
0.000298315
4.16417e-05
0.000298302
4.16484e-05
0.000298289
4.16549e-05
0.000298276
4.16612e-05
0.000298264
4.16672e-05
0.000298251
4.16731e-05
0.000298238
4.16788e-05
0.000298226
4.16843e-05
0.000298214
4.16896e-05
0.000298202
4.16947e-05
0.00029819
4.16996e-05
0.000298178
4.17044e-05
0.000298166
4.1709e-05
0.000298154
4.17135e-05
0.000298143
4.17178e-05
0.000298131
4.1722e-05
0.00029812
4.1726e-05
0.000298109
4.17299e-05
0.000298098
4.17336e-05
0.000298087
4.17373e-05
0.000298076
4.17407e-05
0.000298065
4.17441e-05
0.000298054
4.17474e-05
0.000298044
4.17505e-05
0.000298034
4.17535e-05
0.000298023
4.17564e-05
0.000298013
4.17592e-05
0.000298003
4.17619e-05
0.000297993
4.17645e-05
0.000297983
4.17669e-05
0.000297973
4.17693e-05
0.000297963
4.17716e-05
0.000297953
4.17738e-05
0.000297944
4.17759e-05
0.000297934
4.17779e-05
0.000297924
4.17798e-05
0.000297914
4.17817e-05
0.000297904
4.17834e-05
0.000297894
4.17851e-05
0.000297884
4.17867e-05
0.000297874
4.17882e-05
0.000297863
4.17896e-05
0.000297852
4.17909e-05
0.000297841
4.17922e-05
0.000297829
4.17935e-05
0.000297816
4.17947e-05
0.000297801
4.1796e-05
0.000297785
4.17975e-05
0.000297765
4.17993e-05
0.000297741
4.1802e-05
0.000297708
4.18066e-05
4.18144e-05
0.000296443
4.02905e-05
0.000295977
3.87622e-05
0.000295783
3.80837e-05
0.000295737
3.77743e-05
0.000295757
3.76258e-05
0.000295804
3.75503e-05
0.000295859
3.75078e-05
0.000295914
3.74809e-05
0.000295967
3.74619e-05
0.000296015
3.74471e-05
0.000296059
3.74347e-05
0.0002961
3.74239e-05
0.000296137
3.74142e-05
0.000296172
3.74053e-05
0.000296203
3.73972e-05
0.000296233
3.73895e-05
0.00029626
3.73824e-05
0.000296286
3.73757e-05
0.000296311
3.73694e-05
0.000296334
3.73635e-05
0.000296356
3.73578e-05
0.000296378
3.73525e-05
0.000296398
3.73474e-05
0.000296418
3.73427e-05
0.000296437
3.73381e-05
0.000296456
3.73338e-05
0.000296475
3.73297e-05
0.000296493
3.73258e-05
0.000296511
3.73221e-05
0.000296528
3.73187e-05
0.000296546
3.73154e-05
0.000296564
3.73123e-05
0.000296581
3.73094e-05
0.000296599
3.73066e-05
0.000296616
3.7304e-05
0.000296634
3.73016e-05
0.000296652
3.72994e-05
0.00029667
3.72974e-05
0.000296689
3.72955e-05
0.000296707
3.72938e-05
0.000296726
3.72923e-05
0.000296746
3.72909e-05
0.000296766
3.72898e-05
0.000296786
3.72888e-05
0.000296807
3.7288e-05
0.000296828
3.72874e-05
0.00029685
3.7287e-05
0.000296872
3.72868e-05
0.000296895
3.72867e-05
0.000296918
3.72869e-05
0.000296943
3.72873e-05
0.000296967
3.7288e-05
0.000296993
3.72888e-05
0.000297019
3.72899e-05
0.000297046
3.72912e-05
0.000297074
3.72927e-05
0.000297103
3.72945e-05
0.000297132
3.72966e-05
0.000297163
3.72989e-05
0.000297194
3.73015e-05
0.000297226
3.73044e-05
0.000297259
3.73075e-05
0.000297293
3.7311e-05
0.000297328
3.73148e-05
0.000297364
3.73188e-05
0.000297401
3.73232e-05
0.000297439
3.7328e-05
0.000297478
3.73331e-05
0.000297518
3.73385e-05
0.000297559
3.73443e-05
0.000297601
3.73504e-05
0.000297644
3.73569e-05
0.000297688
3.73639e-05
0.000297734
3.73712e-05
0.00029778
3.73789e-05
0.000297828
3.7387e-05
0.000297877
3.73956e-05
0.000297926
3.74046e-05
0.000297977
3.7414e-05
0.000298029
3.74239e-05
0.000298082
3.74342e-05
0.000298136
3.74451e-05
0.000298192
3.74563e-05
0.000298248
3.74681e-05
0.000298305
3.74804e-05
0.000298363
3.74932e-05
0.000298423
3.75064e-05
0.000298483
3.75202e-05
0.000298544
3.75345e-05
0.000298606
3.75494e-05
0.00029867
3.75647e-05
0.000298734
3.75807e-05
0.000298799
3.75971e-05
0.000298864
3.76141e-05
0.000298931
3.76317e-05
0.000298998
3.76498e-05
0.000299066
3.76684e-05
0.000299135
3.76876e-05
0.000299204
3.77074e-05
0.000299274
3.77278e-05
0.000299345
3.77487e-05
0.000299416
3.77701e-05
0.000299487
3.77922e-05
0.000299559
3.78148e-05
0.000299632
3.78379e-05
0.000299704
3.78616e-05
0.000299777
3.78859e-05
0.000299851
3.79107e-05
0.000299924
3.79361e-05
0.000299998
3.7962e-05
0.000300071
3.79884e-05
0.000300145
3.80153e-05
0.000300218
3.80428e-05
0.000300292
3.80708e-05
0.000300365
3.80993e-05
0.000300439
3.81283e-05
0.000300512
3.81578e-05
0.000300584
3.81877e-05
0.000300657
3.82182e-05
0.000300729
3.8249e-05
0.0003008
3.82804e-05
0.000300871
3.83121e-05
0.000300942
3.83443e-05
0.000301011
3.83769e-05
0.000301081
3.84099e-05
0.000301149
3.84432e-05
0.000301217
3.8477e-05
0.000301284
3.85111e-05
0.00030135
3.85455e-05
0.000301415
3.85802e-05
0.00030148
3.86153e-05
0.000301543
3.86507e-05
0.000301606
3.86863e-05
0.000301667
3.87222e-05
0.000301727
3.87583e-05
0.000301786
3.87947e-05
0.000301844
3.88313e-05
0.000301901
3.88681e-05
0.000301957
3.89051e-05
0.000302011
3.89423e-05
0.000302065
3.89796e-05
0.000302116
3.9017e-05
0.000302167
3.90546e-05
0.000302216
3.90923e-05
0.000302264
3.913e-05
0.00030231
3.91679e-05
0.000302356
3.92058e-05
0.000302399
3.92437e-05
0.000302441
3.92817e-05
0.000302482
3.93197e-05
0.000302521
3.93577e-05
0.000302559
3.93956e-05
0.000302596
3.94336e-05
0.00030263
3.94715e-05
0.000302664
3.95093e-05
0.000302696
3.9547e-05
0.000302726
3.95847e-05
0.000302755
3.96223e-05
0.000302782
3.96597e-05
0.000302808
3.96971e-05
0.000302832
3.97343e-05
0.000302855
3.97713e-05
0.000302876
3.98082e-05
0.000302896
3.98448e-05
0.000302914
3.98813e-05
0.00030293
3.99176e-05
0.000302946
3.99537e-05
0.000302959
3.99896e-05
0.000302971
4.00252e-05
0.000302982
4.00606e-05
0.000302991
4.00957e-05
0.000302999
4.01306e-05
0.000303005
4.01652e-05
0.00030301
4.01995e-05
0.000303013
4.02335e-05
0.000303015
4.02672e-05
0.000303015
4.03006e-05
0.000303015
4.03337e-05
0.000303012
4.03665e-05
0.000303009
4.03989e-05
0.000303004
4.0431e-05
0.000302997
4.04627e-05
0.00030299
4.04941e-05
0.000302981
4.05251e-05
0.000302971
4.05557e-05
0.000302959
4.0586e-05
0.000302947
4.06159e-05
0.000302933
4.06454e-05
0.000302918
4.06745e-05
0.000302901
4.07032e-05
0.000302884
4.07315e-05
0.000302865
4.07594e-05
0.000302846
4.07869e-05
0.000302825
4.0814e-05
0.000302803
4.08406e-05
0.000302781
4.08669e-05
0.000302757
4.08927e-05
0.000302732
4.09181e-05
0.000302707
4.0943e-05
0.00030268
4.09676e-05
0.000302652
4.09917e-05
0.000302624
4.10154e-05
0.000302595
4.10386e-05
0.000302565
4.10614e-05
0.000302534
4.10838e-05
0.000302503
4.11057e-05
0.000302471
4.11273e-05
0.000302438
4.11483e-05
0.000302404
4.1169e-05
0.00030237
4.11892e-05
0.000302335
4.1209e-05
0.0003023
4.12283e-05
0.000302264
4.12473e-05
0.000302227
4.12658e-05
0.00030219
4.12839e-05
0.000302153
4.13016e-05
0.000302115
4.13188e-05
0.000302077
4.13357e-05
0.000302038
4.13521e-05
0.000301999
4.13682e-05
0.00030196
4.13838e-05
0.000301921
4.1399e-05
0.000301881
4.14139e-05
0.000301841
4.14284e-05
0.000301801
4.14424e-05
0.00030176
4.14561e-05
0.00030172
4.14695e-05
0.000301679
4.14824e-05
0.000301638
4.1495e-05
0.000301597
4.15073e-05
0.000301556
4.15192e-05
0.000301515
4.15308e-05
0.000301474
4.1542e-05
0.000301433
4.15529e-05
0.000301392
4.15634e-05
0.000301351
4.15736e-05
0.00030131
4.15836e-05
0.000301269
4.15932e-05
0.000301229
4.16025e-05
0.000301188
4.16115e-05
0.000301148
4.16203e-05
0.000301107
4.16287e-05
0.000301067
4.16369e-05
0.000301027
4.16448e-05
0.000300988
4.16524e-05
0.000300948
4.16598e-05
0.000300909
4.1667e-05
0.00030087
4.16738e-05
0.000300831
4.16805e-05
0.000300793
4.16869e-05
0.000300754
4.16931e-05
0.000300716
4.16991e-05
0.000300679
4.17049e-05
0.000300641
4.17104e-05
0.000300604
4.17158e-05
0.000300568
4.1721e-05
0.000300531
4.1726e-05
0.000300495
4.17308e-05
0.000300459
4.17354e-05
0.000300424
4.17398e-05
0.000300389
4.17441e-05
0.000300354
4.17483e-05
0.00030032
4.17522e-05
0.000300286
4.17561e-05
0.000300252
4.17597e-05
0.000300219
4.17633e-05
0.000300186
4.17667e-05
0.000300153
4.177e-05
0.00030012
4.17731e-05
0.000300088
4.17762e-05
0.000300057
4.17791e-05
0.000300025
4.17819e-05
0.000299994
4.17846e-05
0.000299963
4.17872e-05
0.000299933
4.17898e-05
0.000299902
4.17922e-05
0.000299872
4.17945e-05
0.000299842
4.17968e-05
0.000299813
4.1799e-05
0.000299783
4.18011e-05
0.000299754
4.18032e-05
0.000299724
4.18052e-05
0.000299695
4.18072e-05
0.000299666
4.18091e-05
0.000299637
4.1811e-05
0.000299607
4.18129e-05
0.000299578
4.18148e-05
0.000299547
4.18167e-05
0.000299517
4.18187e-05
0.000299486
4.18209e-05
0.000299453
4.18232e-05
0.00029942
4.18257e-05
0.000299385
4.18286e-05
0.000299347
4.18321e-05
0.000299307
4.18364e-05
0.000299262
4.18419e-05
0.000299213
4.18491e-05
0.000299156
4.18587e-05
0.000299091
4.18717e-05
4.18863e-05
0.000296643
4.06833e-05
0.000296135
3.92703e-05
0.000295775
3.84444e-05
0.000295566
3.79824e-05
0.000295465
3.77275e-05
0.000295429
3.7586e-05
0.000295432
3.75053e-05
0.000295455
3.74573e-05
0.00029549
3.74273e-05
0.00029553
3.74072e-05
0.000295572
3.73928e-05
0.000295614
3.73818e-05
0.000295655
3.73729e-05
0.000295695
3.73653e-05
0.000295734
3.73585e-05
0.000295771
3.73524e-05
0.000295806
3.73467e-05
0.000295841
3.73413e-05
0.000295874
3.73363e-05
0.000295906
3.73315e-05
0.000295937
3.73268e-05
0.000295967
3.73224e-05
0.000295996
3.73181e-05
0.000296025
3.7314e-05
0.000296053
3.731e-05
0.000296081
3.73061e-05
0.000296108
3.73024e-05
0.000296135
3.72988e-05
0.000296162
3.72953e-05
0.000296189
3.72919e-05
0.000296216
3.72887e-05
0.000296242
3.72856e-05
0.000296269
3.72825e-05
0.000296296
3.72796e-05
0.000296323
3.72768e-05
0.000296351
3.72742e-05
0.000296379
3.72716e-05
0.000296407
3.72691e-05
0.000296436
3.72668e-05
0.000296465
3.72646e-05
0.000296495
3.72625e-05
0.000296525
3.72605e-05
0.000296556
3.72587e-05
0.000296588
3.7257e-05
0.000296621
3.72554e-05
0.000296654
3.7254e-05
0.000296688
3.72527e-05
0.000296724
3.72515e-05
0.00029676
3.72506e-05
0.000296797
3.72497e-05
0.000296835
3.72491e-05
0.000296875
3.72486e-05
0.000296915
3.72483e-05
0.000296957
3.72482e-05
0.000297
3.72482e-05
0.000297044
3.72485e-05
0.000297089
3.7249e-05
0.000297136
3.72497e-05
0.000297185
3.72506e-05
0.000297234
3.72518e-05
0.000297285
3.72532e-05
0.000297338
3.72549e-05
0.000297392
3.72568e-05
0.000297448
3.7259e-05
0.000297505
3.72615e-05
0.000297564
3.72643e-05
0.000297625
3.72674e-05
0.000297687
3.72708e-05
0.000297751
3.72745e-05
0.000297817
3.72786e-05
0.000297884
3.7283e-05
0.000297953
3.72878e-05
0.000298024
3.72929e-05
0.000298097
3.72985e-05
0.000298172
3.73044e-05
0.000298248
3.73108e-05
0.000298326
3.73175e-05
0.000298406
3.73247e-05
0.000298487
3.73324e-05
0.000298571
3.73405e-05
0.000298656
3.73491e-05
0.000298743
3.73581e-05
0.000298832
3.73676e-05
0.000298922
3.73777e-05
0.000299014
3.73882e-05
0.000299108
3.73993e-05
0.000299204
3.74109e-05
0.000299301
3.74231e-05
0.0002994
3.74358e-05
0.0002995
3.7449e-05
0.000299602
3.74629e-05
0.000299705
3.74773e-05
0.00029981
3.74923e-05
0.000299916
3.75079e-05
0.000300024
3.75241e-05
0.000300132
3.75409e-05
0.000300242
3.75584e-05
0.000300354
3.75764e-05
0.000300466
3.75951e-05
0.000300579
3.76144e-05
0.000300694
3.76343e-05
0.000300809
3.76549e-05
0.000300925
3.76761e-05
0.000301042
3.76979e-05
0.00030116
3.77203e-05
0.000301278
3.77434e-05
0.000301397
3.77672e-05
0.000301516
3.77915e-05
0.000301635
3.78165e-05
0.000301755
3.78421e-05
0.000301875
3.78683e-05
0.000301995
3.78952e-05
0.000302115
3.79226e-05
0.000302236
3.79507e-05
0.000302356
3.79793e-05
0.000302475
3.80085e-05
0.000302595
3.80383e-05
0.000302714
3.80687e-05
0.000302833
3.80996e-05
0.000302951
3.8131e-05
0.000303068
3.8163e-05
0.000303185
3.81955e-05
0.000303301
3.82285e-05
0.000303415
3.82619e-05
0.000303529
3.82959e-05
0.000303642
3.83303e-05
0.000303754
3.83652e-05
0.000303865
3.84005e-05
0.000303974
3.84362e-05
0.000304082
3.84723e-05
0.000304189
3.85087e-05
0.000304294
3.85456e-05
0.000304397
3.85828e-05
0.000304499
3.86203e-05
0.000304599
3.86581e-05
0.000304698
3.86962e-05
0.000304795
3.87346e-05
0.00030489
3.87733e-05
0.000304983
3.88121e-05
0.000305074
3.88512e-05
0.000305163
3.88905e-05
0.00030525
3.893e-05
0.000305334
3.89697e-05
0.000305417
3.90095e-05
0.000305498
3.90494e-05
0.000305576
3.90895e-05
0.000305652
3.91296e-05
0.000305726
3.91698e-05
0.000305798
3.92101e-05
0.000305867
3.92504e-05
0.000305934
3.92907e-05
0.000305999
3.9331e-05
0.000306061
3.93713e-05
0.000306121
3.94116e-05
0.000306178
3.94519e-05
0.000306233
3.9492e-05
0.000306286
3.95322e-05
0.000306336
3.95722e-05
0.000306384
3.96121e-05
0.000306429
3.96519e-05
0.000306472
3.96915e-05
0.000306512
3.9731e-05
0.00030655
3.97704e-05
0.000306585
3.98095e-05
0.000306618
3.98485e-05
0.000306648
3.98873e-05
0.000306676
3.99258e-05
0.000306702
3.99641e-05
0.000306725
4.00022e-05
0.000306745
4.004e-05
0.000306764
4.00775e-05
0.000306779
4.01148e-05
0.000306793
4.01518e-05
0.000306804
4.01885e-05
0.000306813
4.02248e-05
0.000306819
4.02609e-05
0.000306823
4.02966e-05
0.000306825
4.0332e-05
0.000306824
4.0367e-05
0.000306822
4.04016e-05
0.000306817
4.04359e-05
0.000306809
4.04699e-05
0.0003068
4.05034e-05
0.000306789
4.05365e-05
0.000306775
4.05693e-05
0.00030676
4.06016e-05
0.000306742
4.06335e-05
0.000306722
4.0665e-05
0.000306701
4.06961e-05
0.000306677
4.07268e-05
0.000306652
4.0757e-05
0.000306624
4.07867e-05
0.000306595
4.08161e-05
0.000306564
4.08449e-05
0.000306531
4.08733e-05
0.000306497
4.09013e-05
0.000306461
4.09288e-05
0.000306423
4.09558e-05
0.000306384
4.09824e-05
0.000306343
4.10084e-05
0.0003063
4.10341e-05
0.000306257
4.10592e-05
0.000306211
4.10838e-05
0.000306165
4.1108e-05
0.000306117
4.11317e-05
0.000306068
4.11549e-05
0.000306017
4.11777e-05
0.000305966
4.11999e-05
0.000305913
4.12217e-05
0.000305859
4.1243e-05
0.000305804
4.12639e-05
0.000305748
4.12842e-05
0.000305691
4.13041e-05
0.000305634
4.13235e-05
0.000305575
4.13425e-05
0.000305516
4.1361e-05
0.000305456
4.1379e-05
0.000305395
4.13965e-05
0.000305333
4.14137e-05
0.000305271
4.14303e-05
0.000305208
4.14465e-05
0.000305145
4.14623e-05
0.000305081
4.14776e-05
0.000305017
4.14926e-05
0.000304952
4.1507e-05
0.000304887
4.15211e-05
0.000304822
4.15348e-05
0.000304757
4.1548e-05
0.000304691
4.15608e-05
0.000304625
4.15733e-05
0.000304559
4.15853e-05
0.000304492
4.1597e-05
0.000304426
4.16083e-05
0.00030436
4.16192e-05
0.000304293
4.16298e-05
0.000304227
4.164e-05
0.000304161
4.16499e-05
0.000304094
4.16594e-05
0.000304028
4.16686e-05
0.000303962
4.16775e-05
0.000303897
4.1686e-05
0.000303831
4.16943e-05
0.000303766
4.17022e-05
0.000303701
4.17099e-05
0.000303636
4.17172e-05
0.000303571
4.17243e-05
0.000303507
4.17311e-05
0.000303443
4.17376e-05
0.00030338
4.17439e-05
0.000303317
4.175e-05
0.000303254
4.17558e-05
0.000303192
4.17613e-05
0.00030313
4.17666e-05
0.000303069
4.17718e-05
0.000303008
4.17766e-05
0.000302948
4.17813e-05
0.000302888
4.17858e-05
0.000302829
4.17901e-05
0.00030277
4.17942e-05
0.000302711
4.17982e-05
0.000302654
4.18019e-05
0.000302596
4.18055e-05
0.00030254
4.1809e-05
0.000302483
4.18123e-05
0.000302428
4.18154e-05
0.000302372
4.18184e-05
0.000302318
4.18213e-05
0.000302264
4.18241e-05
0.00030221
4.18267e-05
0.000302157
4.18292e-05
0.000302105
4.18317e-05
0.000302052
4.1834e-05
0.000302001
4.18362e-05
0.00030195
4.18384e-05
0.000301899
4.18405e-05
0.000301849
4.18425e-05
0.000301799
4.18444e-05
0.000301749
4.18463e-05
0.0003017
4.18482e-05
0.000301651
4.18501e-05
0.000301603
4.18519e-05
0.000301554
4.18537e-05
0.000301506
4.18556e-05
0.000301457
4.18575e-05
0.000301409
4.18595e-05
0.00030136
4.18616e-05
0.000301311
4.18638e-05
0.000301261
4.18662e-05
0.000301211
4.1869e-05
0.00030116
4.18721e-05
0.000301108
4.18756e-05
0.000301053
4.18799e-05
0.000300997
4.1885e-05
0.000300938
4.18913e-05
0.000300875
4.18991e-05
0.000300808
4.1909e-05
0.000300736
4.19214e-05
0.000300657
4.19368e-05
0.000300574
4.19549e-05
4.19715e-05
0.00029677
4.09484e-05
0.000296334
3.97061e-05
0.000295934
3.88441e-05
0.000295633
3.82834e-05
0.00029543
3.79306e-05
0.000295305
3.77114e-05
0.000295235
3.75748e-05
0.000295204
3.74888e-05
0.000295198
3.74334e-05
0.000295208
3.73969e-05
0.000295229
3.7372e-05
0.000295256
3.73543e-05
0.000295288
3.73413e-05
0.000295322
3.73313e-05
0.000295357
3.73232e-05
0.000295393
3.73164e-05
0.000295429
3.73106e-05
0.000295465
3.73053e-05
0.000295501
3.73005e-05
0.000295536
3.7296e-05
0.000295571
3.72918e-05
0.000295606
3.72877e-05
0.00029564
3.72838e-05
0.000295674
3.72799e-05
0.000295708
3.72762e-05
0.000295742
3.72725e-05
0.000295775
3.72689e-05
0.000295809
3.72654e-05
0.000295842
3.72619e-05
0.000295876
3.72584e-05
0.000295909
3.7255e-05
0.000295943
3.72517e-05
0.000295977
3.72484e-05
0.000296012
3.72451e-05
0.000296047
3.72419e-05
0.000296082
3.72387e-05
0.000296118
3.72355e-05
0.000296155
3.72324e-05
0.000296192
3.72294e-05
0.000296231
3.72264e-05
0.00029627
3.72235e-05
0.00029631
3.72206e-05
0.00029635
3.72178e-05
0.000296392
3.72151e-05
0.000296435
3.72124e-05
0.00029648
3.72098e-05
0.000296525
3.72073e-05
0.000296572
3.72049e-05
0.00029662
3.72026e-05
0.000296669
3.72003e-05
0.00029672
3.71982e-05
0.000296772
3.71962e-05
0.000296826
3.71943e-05
0.000296882
3.71926e-05
0.000296939
3.7191e-05
0.000296998
3.71895e-05
0.000297059
3.71882e-05
0.000297121
3.71871e-05
0.000297186
3.71861e-05
0.000297252
3.71853e-05
0.000297321
3.71847e-05
0.000297391
3.71843e-05
0.000297464
3.71842e-05
0.000297539
3.71843e-05
0.000297616
3.71846e-05
0.000297695
3.71851e-05
0.000297776
3.7186e-05
0.00029786
3.71871e-05
0.000297946
3.71885e-05
0.000298034
3.71903e-05
0.000298125
3.71923e-05
0.000298218
3.71947e-05
0.000298313
3.71975e-05
0.000298411
3.72006e-05
0.000298512
3.72041e-05
0.000298614
3.7208e-05
0.00029872
3.72123e-05
0.000298827
3.7217e-05
0.000298937
3.72222e-05
0.00029905
3.72279e-05
0.000299165
3.7234e-05
0.000299283
3.72406e-05
0.000299403
3.72477e-05
0.000299525
3.72554e-05
0.000299649
3.72636e-05
0.000299777
3.72723e-05
0.000299906
3.72816e-05
0.000300037
3.72915e-05
0.000300171
3.73019e-05
0.000300307
3.7313e-05
0.000300445
3.73247e-05
0.000300586
3.73371e-05
0.000300728
3.73501e-05
0.000300872
3.73637e-05
0.000301018
3.7378e-05
0.000301166
3.7393e-05
0.000301316
3.74087e-05
0.000301467
3.74251e-05
0.00030162
3.74422e-05
0.000301775
3.746e-05
0.00030193
3.74785e-05
0.000302088
3.74977e-05
0.000302246
3.75177e-05
0.000302405
3.75384e-05
0.000302566
3.75598e-05
0.000302727
3.7582e-05
0.00030289
3.76049e-05
0.000303053
3.76286e-05
0.000303216
3.76529e-05
0.00030338
3.76781e-05
0.000303545
3.77039e-05
0.000303709
3.77305e-05
0.000303874
3.77578e-05
0.000304039
3.77858e-05
0.000304204
3.78145e-05
0.000304369
3.78439e-05
0.000304533
3.7874e-05
0.000304697
3.79048e-05
0.00030486
3.79363e-05
0.000305023
3.79684e-05
0.000305184
3.80011e-05
0.000305345
3.80345e-05
0.000305505
3.80685e-05
0.000305664
3.81031e-05
0.000305822
3.81383e-05
0.000305978
3.8174e-05
0.000306133
3.82103e-05
0.000306286
3.82472e-05
0.000306438
3.82845e-05
0.000306588
3.83223e-05
0.000306736
3.83607e-05
0.000306882
3.83994e-05
0.000307026
3.84386e-05
0.000307168
3.84783e-05
0.000307308
3.85183e-05
0.000307445
3.85587e-05
0.000307581
3.85994e-05
0.000307713
3.86405e-05
0.000307844
3.86819e-05
0.000307971
3.87236e-05
0.000308096
3.87656e-05
0.000308218
3.88078e-05
0.000308338
3.88502e-05
0.000308455
3.88928e-05
0.000308568
3.89356e-05
0.000308679
3.89786e-05
0.000308787
3.90217e-05
0.000308892
3.90649e-05
0.000308994
3.91083e-05
0.000309092
3.91517e-05
0.000309188
3.91952e-05
0.00030928
3.92387e-05
0.000309369
3.92822e-05
0.000309455
3.93257e-05
0.000309538
3.93692e-05
0.000309617
3.94127e-05
0.000309693
3.94561e-05
0.000309766
3.94995e-05
0.000309835
3.95427e-05
0.000309901
3.95858e-05
0.000309964
3.96288e-05
0.000310023
3.96717e-05
0.000310079
3.97144e-05
0.000310132
3.97569e-05
0.000310181
3.97992e-05
0.000310227
3.98414e-05
0.00031027
3.98832e-05
0.000310309
3.99249e-05
0.000310345
3.99663e-05
0.000310377
4.00074e-05
0.000310407
4.00483e-05
0.000310433
4.00888e-05
0.000310455
4.01291e-05
0.000310475
4.0169e-05
0.000310491
4.02086e-05
0.000310504
4.02479e-05
0.000310514
4.02868e-05
0.00031052
4.03253e-05
0.000310524
4.03634e-05
0.000310524
4.04012e-05
0.000310522
4.04386e-05
0.000310516
4.04755e-05
0.000310507
4.0512e-05
0.000310496
4.05481e-05
0.000310481
4.05838e-05
0.000310464
4.0619e-05
0.000310444
4.06538e-05
0.000310421
4.06881e-05
0.000310395
4.07219e-05
0.000310367
4.07552e-05
0.000310335
4.07881e-05
0.000310302
4.08205e-05
0.000310265
4.08524e-05
0.000310227
4.08837e-05
0.000310185
4.09146e-05
0.000310142
4.0945e-05
0.000310096
4.09748e-05
0.000310047
4.10041e-05
0.000309997
4.10329e-05
0.000309944
4.10612e-05
0.000309889
4.10889e-05
0.000309832
4.11161e-05
0.000309774
4.11427e-05
0.000309713
4.11688e-05
0.00030965
4.11944e-05
0.000309585
4.12195e-05
0.000309519
4.1244e-05
0.000309451
4.12679e-05
0.000309382
4.12913e-05
0.00030931
4.13142e-05
0.000309238
4.13365e-05
0.000309164
4.13583e-05
0.000309088
4.13796e-05
0.000309011
4.14003e-05
0.000308933
4.14205e-05
0.000308854
4.14402e-05
0.000308774
4.14593e-05
0.000308692
4.14779e-05
0.00030861
4.1496e-05
0.000308527
4.15136e-05
0.000308442
4.15307e-05
0.000308357
4.15473e-05
0.000308272
4.15634e-05
0.000308185
4.1579e-05
0.000308098
4.15941e-05
0.000308011
4.16087e-05
0.000307922
4.16229e-05
0.000307834
4.16366e-05
0.000307745
4.16498e-05
0.000307655
4.16626e-05
0.000307566
4.1675e-05
0.000307476
4.16869e-05
0.000307386
4.16984e-05
0.000307296
4.17094e-05
0.000307205
4.17201e-05
0.000307115
4.17303e-05
0.000307025
4.17402e-05
0.000306934
4.17497e-05
0.000306844
4.17588e-05
0.000306754
4.17675e-05
0.000306664
4.17759e-05
0.000306575
4.17839e-05
0.000306485
4.17916e-05
0.000306396
4.17989e-05
0.000306308
4.1806e-05
0.000306219
4.18127e-05
0.000306131
4.18191e-05
0.000306044
4.18252e-05
0.000305957
4.1831e-05
0.00030587
4.18366e-05
0.000305784
4.18419e-05
0.000305698
4.18469e-05
0.000305613
4.18517e-05
0.000305529
4.18562e-05
0.000305445
4.18605e-05
0.000305362
4.18646e-05
0.000305279
4.18684e-05
0.000305197
4.18721e-05
0.000305116
4.18755e-05
0.000305035
4.18788e-05
0.000304955
4.18819e-05
0.000304876
4.18848e-05
0.000304797
4.18875e-05
0.00030472
4.18901e-05
0.000304642
4.18926e-05
0.000304566
4.18949e-05
0.00030449
4.18971e-05
0.000304415
4.18991e-05
0.000304341
4.19011e-05
0.000304267
4.19029e-05
0.000304194
4.19047e-05
0.000304122
4.19063e-05
0.00030405
4.19079e-05
0.000303979
4.19095e-05
0.000303908
4.1911e-05
0.000303839
4.19124e-05
0.000303769
4.19138e-05
0.0003037
4.19152e-05
0.000303632
4.19167e-05
0.000303564
4.19181e-05
0.000303496
4.19196e-05
0.000303429
4.19212e-05
0.000303361
4.19229e-05
0.000303294
4.19247e-05
0.000303227
4.19267e-05
0.000303159
4.1929e-05
0.000303092
4.19316e-05
0.000303023
4.19346e-05
0.000302954
4.19381e-05
0.000302884
4.19423e-05
0.000302812
4.19473e-05
0.000302739
4.19534e-05
0.000302663
4.19608e-05
0.000302584
4.19699e-05
0.000302502
4.19812e-05
0.000302416
4.1995e-05
0.000302326
4.20117e-05
0.000302232
4.20311e-05
0.000302135
4.2052e-05
4.20691e-05
0.000296855
4.11273e-05
0.000296506
4.00555e-05
0.000296128
3.92216e-05
0.000295795
3.86163e-05
0.000295532
3.81941e-05
0.000295338
3.79057e-05
0.000295202
3.77106e-05
0.000295112
3.75785e-05
0.000295057
3.74885e-05
0.000295027
3.74265e-05
0.000295016
3.73831e-05
0.000295018
3.73521e-05
0.00029503
3.73295e-05
0.000295049
3.73126e-05
0.000295072
3.72996e-05
0.0002951
3.72893e-05
0.000295129
3.72809e-05
0.000295161
3.72738e-05
0.000295194
3.72677e-05
0.000295228
3.72622e-05
0.000295262
3.72573e-05
0.000295297
3.72526e-05
0.000295333
3.72483e-05