/*--------------------------------*- C++ -*----------------------------------*\
| =========                 |                                                 |
| \\      /  F ield         | OpenFOAM: The Open Source CFD Toolbox           |
|  \\    /   O peration     | Version:  2512                                  |
|   \\  /    A nd           | Website:  www.openfoam.com                      |
|    \\/     M anipulation  |                                                 |
\*---------------------------------------------------------------------------*/
FoamFile
{
    version     2.0;
    format      ascii;
    arch        "LSB;label=32;scalar=64";
    class       volSymmTensorField;
    location    "2978";
    object      turbulenceProperties:devReff;
}
// * * * * * * * * * * * * * * * * * * * * * * * * * * * * * * * * * * * * * //

dimensions      [0 2 -2 0 0 0 0];

internalField   nonuniform List<symmTensor> 
66422
(
(-0.000959258 0.00416224 -0 0.00294982 -0 -0.00199056)
(-0.00240541 0.0019988 -0 0.00537022 -0 -0.00296481)
(-0.00316672 0.00137247 -0 0.00628144 -0 -0.00311472)
(-0.00339001 0.00118269 -0 0.00660267 -0 -0.00321266)
(-0.00344219 0.00108591 -0 0.00673654 -0 -0.00329435)
(-0.00346631 0.00100676 -0 0.00681413 -0 -0.00334782)
(-0.00348132 0.000937622 -0 0.00686724 -0 -0.00338592)
(-0.0034924 0.000877886 -0 0.00690781 -0 -0.00341541)
(-0.00350219 0.00082626 -0 0.00694128 -0 -0.00343909)
(-0.0035114 0.000781383 -0 0.00697007 -0 -0.00345866)
(-0.00352015 0.000742062 -0 0.0069954 -0 -0.00347525)
(-0.00352845 0.000707298 -0 0.00701802 -0 -0.00348957)
(-0.00353628 0.000676275 -0 0.00703842 -0 -0.00350214)
(-0.00354366 0.000648339 -0 0.00705695 -0 -0.00351329)
(-0.00355061 0.000622967 -0 0.00707389 -0 -0.00352328)
(-0.00355714 0.000599737 -0 0.00708945 -0 -0.00353231)
(-0.00356329 0.00057831 -0 0.00710381 -0 -0.00354052)
(-0.00356907 0.000558407 -0 0.0071171 -0 -0.00354803)
(-0.00357453 0.000539798 -0 0.00712945 -0 -0.00355493)
(-0.00357966 0.00052229 -0 0.00714095 -0 -0.00356129)
(-0.00358451 0.000505724 -0 0.00715169 -0 -0.00356717)
(-0.00358909 0.000489961 -0 0.00716172 -0 -0.00357263)
(-0.00359341 0.000474883 -0 0.00717111 -0 -0.0035777)
(-0.00359749 0.00046039 -0 0.00717991 -0 -0.00358242)
(-0.00360135 0.000446391 -0 0.00718816 -0 -0.00358681)
(-0.00360499 0.000432808 -0 0.00719589 -0 -0.0035909)
(-0.00360843 0.000419572 -0 0.00720315 -0 -0.00359471)
(-0.00361168 0.00040662 -0 0.00720994 -0 -0.00359826)
(-0.00361474 0.000393896 -0 0.00721631 -0 -0.00360157)
(-0.00361762 0.000381348 -0 0.00722226 -0 -0.00360464)
(-0.00362032 0.000368929 -0 0.0072278 -0 -0.00360748)
(-0.00362286 0.000356596 -0 0.00723297 -0 -0.00361011)
(-0.00362523 0.00034431 -0 0.00723776 -0 -0.00361253)
(-0.00362744 0.000332031 -0 0.00724219 -0 -0.00361475)
(-0.00362949 0.000319726 -0 0.00724626 -0 -0.00361677)
(-0.00363138 0.00030736 -0 0.00724998 -0 -0.0036186)
(-0.00363311 0.000294903 -0 0.00725335 -0 -0.00362024)
(-0.00363469 0.000282324 -0 0.00725638 -0 -0.00362169)
(-0.00363611 0.000269594 -0 0.00725907 -0 -0.00362296)
(-0.00363738 0.000256687 -0 0.00726142 -0 -0.00362404)
(-0.00363849 0.000243574 -0 0.00726342 -0 -0.00362494)
(-0.00363944 0.000230231 -0 0.00726509 -0 -0.00362565)
(-0.00364023 0.000216632 -0 0.00726641 -0 -0.00362618)
(-0.00364086 0.000202754 -0 0.00726738 -0 -0.00362652)
(-0.00364133 0.000188572 -0 0.007268 -0 -0.00362667)
(-0.00364163 0.000174065 -0 0.00726826 -0 -0.00362663)
(-0.00364176 0.000159209 -0 0.00726816 -0 -0.00362641)
(-0.00364171 0.000143983 -0 0.0072677 -0 -0.00362598)
(-0.0036415 0.000128365 -0 0.00726686 -0 -0.00362536)
(-0.0036411 0.000112334 -0 0.00726563 -0 -0.00362454)
(-0.00364051 9.58714e-05 -0 0.00726402 -0 -0.00362351)
(-0.00363974 7.89558e-05 -0 0.00726201 -0 -0.00362227)
(-0.00363878 6.1568e-05 -0 0.0072596 -0 -0.00362082)
(-0.00363761 4.36893e-05 -0 0.00725677 -0 -0.00361916)
(-0.00363625 2.53011e-05 -0 0.00725351 -0 -0.00361727)
(-0.00363467 6.38552e-06 -0 0.00724982 -0 -0.00361515)
(-0.00363288 -1.3075e-05 -0 0.00724568 -0 -0.0036128)
(-0.00363087 -3.30974e-05 -0 0.00724109 -0 -0.00361022)
(-0.00362864 -5.3698e-05 -0 0.00723603 -0 -0.00360739)
(-0.00362617 -7.48927e-05 -0 0.00723049 -0 -0.00360432)
(-0.00362346 -9.66967e-05 -0 0.00722446 -0 -0.00360099)
(-0.00362052 -0.000119125 -0 0.00721792 -0 -0.00359741)
(-0.00361732 -0.00014219 -0 0.00721088 -0 -0.00359356)
(-0.00361386 -0.000165907 -0 0.0072033 -0 -0.00358944)
(-0.00361014 -0.000190288 -0 0.00719518 -0 -0.00358505)
(-0.00360615 -0.000215344 -0 0.00718651 -0 -0.00358037)
(-0.00360188 -0.000241086 -0 0.00717728 -0 -0.0035754)
(-0.00359732 -0.000267526 -0 0.00716746 -0 -0.00357014)
(-0.00359247 -0.000294671 -0 0.00715705 -0 -0.00356458)
(-0.00358733 -0.00032253 -0 0.00714604 -0 -0.00355871)
(-0.00358188 -0.000351112 -0 0.00713441 -0 -0.00355253)
(-0.00357612 -0.000380422 -0 0.00712215 -0 -0.00354603)
(-0.00357003 -0.000410465 -0 0.00710924 -0 -0.00353921)
(-0.00356362 -0.000441247 -0 0.00709568 -0 -0.00353206)
(-0.00355688 -0.000472771 -0 0.00708144 -0 -0.00352457)
(-0.00354979 -0.000505038 -0 0.00706652 -0 -0.00351673)
(-0.00354236 -0.000538051 -0 0.00705091 -0 -0.00350855)
(-0.00353457 -0.000571808 -0 0.00703459 -0 -0.00350002)
(-0.00352642 -0.000606309 -0 0.00701754 -0 -0.00349112)
(-0.0035179 -0.000641551 -0 0.00699977 -0 -0.00348187)
(-0.00350901 -0.00067753 -0 0.00698125 -0 -0.00347224)
(-0.00349974 -0.000714241 -0 0.00696198 -0 -0.00346224)
(-0.00349008 -0.000751678 -0 0.00694194 -0 -0.00345186)
(-0.00348003 -0.000789833 -0 0.00692112 -0 -0.00344109)
(-0.00346958 -0.000828697 -0 0.00689952 -0 -0.00342994)
(-0.00345873 -0.000868259 -0 0.00687712 -0 -0.0034184)
(-0.00344747 -0.000908508 -0 0.00685392 -0 -0.00340646)
(-0.00343579 -0.00094943 -0 0.00682991 -0 -0.00339412)
(-0.0034237 -0.000991012 -0 0.00680507 -0 -0.00338138)
(-0.00341118 -0.00103324 -0 0.00677941 -0 -0.00336823)
(-0.00339824 -0.00107609 -0 0.00675292 -0 -0.00335468)
(-0.00338487 -0.00111955 -0 0.00672558 -0 -0.00334071)
(-0.00337107 -0.0011636 -0 0.0066974 -0 -0.00332634)
(-0.00335683 -0.00120821 -0 0.00666837 -0 -0.00331155)
(-0.00334215 -0.00125337 -0 0.00663849 -0 -0.00329634)
(-0.00332703 -0.00129905 -0 0.00660775 -0 -0.00328072)
(-0.00331147 -0.00134523 -0 0.00657615 -0 -0.00326469)
(-0.00329546 -0.00139187 -0 0.0065437 -0 -0.00324823)
(-0.00327901 -0.00143896 -2.13975e-37 0.00651038 -0 -0.00323137)
(-0.00326212 -0.00148647 2.82234e-35 0.00647621 3.203e-36 -0.00321408)
(-0.00324479 -0.00153436 -2.77954e-35 0.00644117 -3.203e-36 -0.00319639)
(-0.00322701 -0.00158261 -2.13973e-37 0.00640529 -0 -0.00317828)
(-0.00320878 -0.00163118 -0 0.00636854 -0 -0.00315976)
(-0.00319012 -0.00168005 -0 0.00633095 -0 -0.00314083)
(-0.00317102 -0.00172918 -0 0.00629252 -0 -0.0031215)
(-0.00315148 -0.00177854 -0 0.00625325 -0 -0.00310176)
(-0.00313151 -0.00182809 -0 0.00621314 -0 -0.00308163)
(-0.00311111 -0.0018778 -0 0.00617221 -0 -0.0030611)
(-0.00309028 -0.00192763 -0 0.00613047 -0 -0.00304019)
(-0.00306903 -0.00197756 -0 0.00608792 -0 -0.00301888)
(-0.00304737 -0.00202754 -0 0.00604457 -0 -0.0029972)
(-0.00302529 -0.00207753 -0 0.00600044 -0 -0.00297514)
(-0.00300281 -0.00212751 -0 0.00595553 -0 -0.00295272)
(-0.00297993 -0.00217743 -0 0.00590986 -0 -0.00292993)
(-0.00295666 -0.00222725 -0 0.00586345 -0 -0.00290679)
(-0.002933 -0.00227695 -0 0.0058163 -0 -0.0028833)
(-0.00290897 -0.00232649 -0 0.00576843 -0 -0.00285946)
(-0.00288456 -0.00237582 -0 0.00571986 -0 -0.0028353)
(-0.0028598 -0.00242492 -0 0.00567061 -0 -0.00281081)
(-0.00283468 -0.00247374 -0 0.00562068 -0 -0.002786)
(-0.00280922 -0.00252225 -0 0.00557011 -0 -0.00276089)
(-0.00278342 -0.00257043 -0 0.0055189 -0 -0.00273547)
(-0.00275731 -0.00261822 -0 0.00546708 -0 -0.00270977)
(-0.00273087 -0.0026656 -0 0.00541466 -0 -0.00268379)
(-0.00270413 -0.00271254 -0 0.00536167 -0 -0.00265753)
(-0.0026771 -0.002759 -0 0.00530812 -0 -0.00263102)
(-0.00264979 -0.00280495 -0 0.00525404 -0 -0.00260425)
(-0.00262221 -0.00285036 -0 0.00519945 -0 -0.00257724)
(-0.00259436 -0.00289519 -0 0.00514437 -0 -0.00255001)
(-0.00256627 -0.00293943 -0 0.00508883 -0 -0.00252255)
(-0.00253794 -0.00298303 -0 0.00503283 -0 -0.00249489)
(-0.00250939 -0.00302598 -0 0.00497642 -0 -0.00246703)
(-0.00248062 -0.00306824 -0 0.0049196 -0 -0.00243898)
(-0.00245166 -0.0031098 -0 0.00486242 -0 -0.00241076)
(-0.0024225 -0.00315061 -0 0.00480487 -0 -0.00238237)
(-0.00239317 -0.00319067 -0 0.004747 -0 -0.00235383)
(-0.00236368 -0.00322994 -0 0.00468883 -0 -0.00232515)
(-0.00233403 -0.00326841 -0 0.00463037 -0 -0.00229634)
(-0.00230424 -0.00330605 -0 0.00457165 -0 -0.00226741)
(-0.00227433 -0.00334284 -0 0.0045127 -0 -0.00223837)
(-0.0022443 -0.00337877 -0 0.00445354 -0 -0.00220924)
(-0.00221418 -0.00341382 -0 0.00439419 -0 -0.00218002)
(-0.00218396 -0.00344796 -0 0.00433469 -0 -0.00215073)
(-0.00215367 -0.00348119 -0 0.00427504 -0 -0.00212137)
(-0.00212331 -0.00351349 -0 0.00421527 -0 -0.00209197)
(-0.00209289 -0.00354484 -0 0.00415542 -0 -0.00206252)
(-0.00206244 -0.00357524 -0 0.0040955 -0 -0.00203305)
(-0.00203196 -0.00360466 -0 0.00403553 -0 -0.00200356)
(-0.00200147 -0.00363311 -0 0.00397553 -0 -0.00197407)
(-0.00197097 -0.00366056 -0 0.00391554 -0 -0.00194457)
(-0.00194047 -0.00368702 -0 0.00385557 -0 -0.0019151)
(-0.00191 -0.00371247 -0 0.00379565 -0 -0.00188565)
(-0.00187955 -0.0037369 -0 0.00373579 -0 -0.00185623)
(-0.00184915 -0.00376032 -0 0.00367602 -0 -0.00182687)
(-0.0018188 -0.0037827 -0 0.00361636 -0 -0.00179756)
(-0.00178852 -0.00380406 -0 0.00355683 -0 -0.00176831)
(-0.0017583 -0.00382438 -0 0.00349745 -0 -0.00173915)
(-0.00172818 -0.00384367 -0 0.00343824 -0 -0.00171007)
(-0.00169814 -0.00386192 -0 0.00337923 -0 -0.00168108)
(-0.00166822 -0.00387912 -0 0.00332042 -0 -0.00165221)
(-0.00163841 -0.00389529 -0 0.00326185 -0 -0.00162344)
(-0.00160872 -0.00391042 -0 0.00320353 -0 -0.00159481)
(-0.00157917 -0.0039245 -0 0.00314548 -0 -0.0015663)
(-0.00154977 -0.00393755 -0 0.00308771 -0 -0.00153794)
(-0.00152052 -0.00394957 -0 0.00303025 -0 -0.00150973)
(-0.00149143 -0.00396055 -0 0.00297311 -0 -0.00148168)
(-0.00146252 -0.00397051 -0 0.00291631 -0 -0.00145379)
(-0.00143378 -0.00397944 -0 0.00285986 -0 -0.00142608)
(-0.00140524 -0.00398735 -0 0.00280379 -0 -0.00139856)
(-0.00137689 -0.00399425 -0 0.00274811 -0 -0.00137122)
(-0.00134874 -0.00400014 -0 0.00269283 -0 -0.00134409)
(-0.00132082 -0.00400503 -0 0.00263797 -0 -0.00131716)
(-0.00129311 -0.00400893 -0 0.00258355 -0 -0.00129044)
(-0.00126563 -0.00401184 -0 0.00252957 -0 -0.00126394)
(-0.00123838 -0.00401378 -0 0.00247605 -0 -0.00123767)
(-0.00121138 -0.00401475 -0 0.00242301 -0 -0.00121163)
(-0.00118463 -0.00401476 -0 0.00237046 -0 -0.00118583)
(-0.00115813 -0.00401383 -0 0.0023184 -0 -0.00116027)
(-0.00113189 -0.00401195 -0 0.00226686 -0 -0.00113497)
(-0.00110593 -0.00400915 -0 0.00221585 -0 -0.00110992)
(-0.00108023 -0.00400544 -0 0.00216537 -0 -0.00108513)
(-0.00105482 -0.00400082 -0 0.00211543 -0 -0.00106061)
(-0.00102969 -0.00399532 -0 0.00206606 -0 -0.00103637)
(-0.00100485 -0.00398893 -0 0.00201724 -0 -0.00101239)
(-0.000980307 -0.00398168 -0 0.00196901 -0 -0.000988703)
(-0.000956062 -0.00397358 -0 0.00192136 -0 -0.000965297)
(-0.000932121 -0.00396465 -0 0.0018743 -0 -0.000942181)
(-0.000908488 -0.00395489 -0 0.00182785 -0 -0.000919358)
(-0.000885168 -0.00394432 -0 0.001782 -0 -0.000896831)
(-0.000862164 -0.00393297 -0 0.00173677 -0 -0.000874604)
(-0.000839479 -0.00392083 -0 0.00169216 -0 -0.000852681)
(-0.000817116 -0.00390794 -0 0.00164818 -0 -0.000831063)
(-0.00079508 -0.00389431 -0 0.00160483 -0 -0.000809755)
(-0.000773372 -0.00387995 -0 0.00156213 -0 -0.000788757)
(-0.000751995 -0.00386488 -0 0.00152007 -0 -0.000768073)
(-0.000730952 -0.00384911 -0 0.00147866 -0 -0.000747705)
(-0.000710244 -0.00383268 -0 0.0014379 -0 -0.000727654)
(-0.000689873 -0.00381558 -0 0.00139779 -0 -0.000707922)
(-0.000669841 -0.00379785 -0 0.00135835 -0 -0.000688509)
(-0.000650149 -0.0037795 -0 0.00131957 -0 -0.000669418)
(-0.000630799 -0.00376055 -0 0.00128145 -0 -0.00065065)
(-0.00061179 -0.00374102 -0 0.00124399 -0 -0.000632204)
(-0.000593125 -0.00372092 -0 0.00120721 -0 -0.000614081)
(-0.000574802 -0.00370028 -0 0.00117108 -0 -0.000596282)
(-0.000556823 -0.00367912 -0 0.00113563 -0 -0.000578806)
(-0.000539187 -0.00365745 -0 0.00110084 -0 -0.000561653)
(-0.000521894 -0.00363529 -0 0.00106672 -0 -0.000544823)
(-0.000504943 -0.00361268 -0 0.00103326 -0 -0.000528316)
(-0.000488333 -0.00358961 -0 0.00100046 -0 -0.00051213)
(-0.000472064 -0.00356612 -0 0.000968328 -0 -0.000496264)
(-0.000456134 -0.00354223 -0 0.000936852 -0 -0.000480717)
(-0.000440542 -0.00351795 -0 0.000906031 -0 -0.000465489)
(-0.000425286 -0.00349331 -0 0.000875862 -0 -0.000450576)
(-0.000410365 -0.00346832 -0 0.000846342 -0 -0.000435977)
(-0.000395776 -0.003443 -0 0.000817467 -0 -0.000421691)
(-0.000381517 -0.00341738 -0 0.000789232 -0 -0.000407716)
(-0.000367585 -0.00339147 -0 0.000761633 -0 -0.000394048)
(-0.000353978 -0.0033653 -0 0.000734663 -0 -0.000380685)
(-0.000340694 -0.00333888 -0 0.000708319 -0 -0.000367625)
(-0.000327728 -0.00331223 -0 0.000682594 -0 -0.000354866)
(-0.000315079 -0.00328537 -0 0.000657482 -0 -0.000342403)
(-0.000302742 -0.00325832 -0 0.000632977 -0 -0.000330235)
(-0.000290714 -0.0032311 -0 0.000609071 -0 -0.000318357)
(-0.000278992 -0.00320372 -0 0.000585759 -0 -0.000306767)
(-0.000267572 -0.00317621 -0 0.000563032 -0 -0.00029546)
(-0.00025645 -0.00314858 -0 0.000540884 -0 -0.000284434)
(-0.000245621 -0.00312084 -0 0.000519307 -0 -0.000273685)
(-0.000235083 -0.00309303 -0 0.000498292 -0 -0.000263209)
(-0.00022483 -0.00306515 -0 0.000477832 -0 -0.000253002)
(-0.000214858 -0.00303721 -0 0.000457918 -0 -0.00024306)
(-0.000205163 -0.00300924 -0 0.000438542 -0 -0.000233379)
(-0.00019574 -0.00298126 -0 0.000419696 -0 -0.000223955)
(-0.000186585 -0.00295326 -0 0.00040137 -0 -0.000214784)
(-0.000177693 -0.00292528 -0 0.000383555 -0 -0.000205862)
(-0.000169059 -0.00289733 -0 0.000366243 -0 -0.000197183)
(-0.000160679 -0.00286941 -0 0.000349424 -0 -0.000188745)
(-0.000152547 -0.00284154 -0 0.000333089 -0 -0.000180542)
(-0.000144659 -0.00281375 -0 0.000317228 -0 -0.00017257)
(-0.000137009 -0.00278602 -0 0.000301834 -0 -0.000164824)
(-0.000129594 -0.00275839 -0 0.000286894 -0 -0.000157301)
(-0.000122407 -0.00273087 -0 0.000272402 -0 -0.000149995)
(-0.000115444 -0.00270345 -0 0.000258346 -0 -0.000142902)
(-0.0001087 -0.00267616 -0 0.000244717 -0 -0.000136018)
(-0.000102169 -0.002649 -0 0.000231507 -0 -0.000129337)
(-9.58479e-05 -0.00262199 -0 0.000218705 -0 -0.000122857)
(-8.97303e-05 -0.00259513 -0 0.000206301 -0 -0.000116571)
(-8.38115e-05 -0.00256843 -0 0.000194287 -0 -0.000110475)
(-7.80865e-05 -0.0025419 -0 0.000182652 -0 -0.000104566)
(-7.25506e-05 -0.00251556 -0 0.000171389 -0 -9.88382e-05)
(-6.71987e-05 -0.00248939 -0 0.000160486 -0 -9.32876e-05)
(-6.20261e-05 -0.00246342 -0 0.000149936 -0 -8.79098e-05)
(-5.70278e-05 -0.00243765 -0 0.000139728 -0 -8.27005e-05)
(-5.21991e-05 -0.00241209 -0 0.000129855 -0 -7.76554e-05)
(-4.75354e-05 -0.00238673 -0 0.000120306 -0 -7.27703e-05)
(-4.30318e-05 -0.00236159 -0 0.000111073 -0 -6.8041e-05)
(-3.86839e-05 -0.00233667 -0 0.000102147 -0 -6.34634e-05)
(-3.4487e-05 -0.00231197 -0 9.35205e-05 -0 -5.90335e-05)
(-3.04367e-05 -0.0022875 -0 8.51839e-05 -0 -5.47472e-05)
(-2.65286e-05 -0.00226327 -0 7.71293e-05 -0 -5.06008e-05)
(-2.27582e-05 -0.00223926 -0 6.93485e-05 -0 -4.65903e-05)
(-1.91215e-05 -0.00221549 -0 6.18335e-05 -0 -4.2712e-05)
(-1.5614e-05 -0.00219195 -0 5.45764e-05 -0 -3.89623e-05)
(-1.22318e-05 -0.00216865 -0 4.75695e-05 -0 -3.53377e-05)
(-8.97077e-06 -0.00214558 -0 4.08054e-05 -0 -3.18347e-05)
(-5.82699e-06 -0.00212276 -0 3.42769e-05 -0 -2.84499e-05)
(-2.79658e-06 -0.00210016 -0 2.79767e-05 -0 -2.51801e-05)
(1.24237e-07 -0.0020778 -0 2.1898e-05 -0 -2.20222e-05)
(2.93917e-06 -0.00205568 -0 1.60341e-05 -0 -1.89732e-05)
(5.65183e-06 -0.00203378 -0 1.03785e-05 -0 -1.60303e-05)
(8.26576e-06 -0.0020121 -0 4.92496e-06 -0 -1.31907e-05)
(1.07844e-05 -0.00199065 -0 -3.32533e-07 -0 -1.04519e-05)
(1.32111e-05 -0.0019694 -0 -5.39977e-06 -0 -7.81138e-06)
(1.55493e-05 -0.00194837 -0 -1.02823e-05 -0 -5.26699e-06)
(1.78021e-05 -0.00192754 -0 -1.49854e-05 -0 -2.81667e-06)
(1.99728e-05 -0.00190689 -0 -1.95142e-05 -0 -4.58554e-07)
(2.20645e-05 -0.00188643 -0 -2.38735e-05 -0 1.80899e-06)
(2.40804e-05 -0.00186614 -0 -2.80677e-05 -0 3.98735e-06)
(2.60236e-05 -0.001846 -0 -3.21013e-05 -0 6.07766e-06)
(2.78975e-05 -0.001826 -0 -3.59783e-05 -0 8.08076e-06)
(2.97055e-05 -0.00180612 -0 -3.97026e-05 -0 9.99716e-06)
(3.14509e-05 -0.00178634 -0 -4.32779e-05 -0 1.1827e-05)
(3.31379e-05 -0.00176664 -0 -4.67079e-05 -0 1.357e-05)
(3.47707e-05 -0.00174698 -0 -4.9996e-05 -0 1.52253e-05)
(3.63544e-05 -0.00172733 -0 -5.3146e-05 -0 1.67916e-05)
(3.7895e-05 -0.00170765 -0 -5.61618e-05 -0 1.82668e-05)
(3.94e-05 -0.00168789 -0 -5.90481e-05 -0 1.96481e-05)
(4.08789e-05 -0.00166798 -0 -6.18102e-05 -0 2.09313e-05)
(4.23444e-05 -0.00164785 -0 -6.44556e-05 -0 2.21113e-05)
(4.38135e-05 -0.00162742 -0 -6.69943e-05 -0 2.31808e-05)
(4.53105e-05 -0.00160655 -0 -6.9441e-05 -0 2.41305e-05)
(4.68702e-05 -0.0015851 -0 -7.18176e-05 -0 2.49474e-05)
(4.8545e-05 -0.00156286 -0 -7.41588e-05 -0 2.56137e-05)
(5.04167e-05 -0.00153957 -0 -7.65205e-05 -0 2.61038e-05)
(5.26198e-05 -0.00151487 -0 -7.89976e-05 -0 2.63778e-05)
(5.53783e-05 -0.00148824 -0 -8.17521e-05 -0 2.63738e-05)
(5.90149e-05 -0.00145895 -0 -8.50319e-05 -0 2.6017e-05)
(6.41391e-05 -0.00142605 -0 -8.92784e-05 -0 2.51394e-05)
(7.38565e-05 -0.00138864 -0 -9.63291e-05 -0 2.24726e-05)
(9.23046e-05 -0.00134268 -0 -0.00010927 -0 1.69657e-05)
(7.64773e-05 -0.00128028 -0 -0.000107679 -0 3.12013e-05)
(0.0013908 0.00266719 -0 -0.00159765 -0 0.000206846)
(0.0013972 0.0010718 -0 -0.00176363 -0 0.000366433)
(0.000873752 0.000577769 -0 -0.00136071 -0 0.000486959)
(0.000606055 0.000526632 -0 -0.00112511 -0 0.000519055)
(0.000492345 0.000551834 -0 -0.00102476 -0 0.000532417)
(0.000448465 0.000579389 -0 -0.000990576 -0 0.00054211)
(0.000438092 0.000596621 -0 -0.000986955 -0 0.000548862)
(0.000442488 0.000602838 -0 -0.000996167 -0 0.000553678)
(0.000452282 0.000600863 -0 -0.00100972 -0 0.000557435)
(0.000463404 0.000593629 -0 -0.00102393 -0 0.000560526)
(0.000474204 0.000583264 -0 -0.00103735 -0 0.000563144)
(0.000484067 0.000571158 -0 -0.00104948 -0 0.00056541)
(0.000492835 0.000558183 -0 -0.00106024 -0 0.000567402)
(0.000500538 0.000544868 -0 -0.00106971 -0 0.000569177)
(0.000507276 0.000531529 -0 -0.00107805 -0 0.000570771)
(0.000513165 0.000518346 -0 -0.00108538 -0 0.000572216)
(0.00051832 0.000505417 -0 -0.00109185 -0 0.000573532)
(0.000522838 0.000492786 -0 -0.00109758 -0 0.000574739)
(0.000526806 0.000480468 -0 -0.00110265 -0 0.000575849)
(0.000530297 0.000468458 -0 -0.00110717 -0 0.000576874)
(0.000533371 0.000456738 -0 -0.00111119 -0 0.000577823)
(0.000536079 0.000445285 -0 -0.00111478 -0 0.000578704)
(0.000538463 0.000434071 -0 -0.00111799 -0 0.000579524)
(0.000540559 0.000423066 -0 -0.00112085 -0 0.000580288)
(0.000542396 0.00041224 -0 -0.0011234 -0 0.000581)
(0.000544 0.000401564 -0 -0.00112566 -0 0.000581664)
(0.000545392 0.000391007 -0 -0.00112768 -0 0.000582284)
(0.00054659 0.000380539 -0 -0.00112945 -0 0.000582861)
(0.000547609 0.000370134 -0 -0.00113101 -0 0.0005834)
(0.000548461 0.000359762 -0 -0.00113236 -0 0.0005839)
(0.000549159 0.000349398 -0 -0.00113352 -0 0.000584365)
(0.00054971 0.000339016 -0 -0.00113451 -0 0.000584795)
(0.000550124 0.00032859 -0 -0.00113532 -0 0.000585192)
(0.000550408 0.000318096 -0 -0.00113596 -0 0.000585557)
(0.000550566 0.000307511 -0 -0.00113646 -0 0.00058589)
(0.000550605 0.000296811 -0 -0.0011368 -0 0.000586193)
(0.000550529 0.000285974 -0 -0.00113699 -0 0.000586465)
(0.000550341 0.000274977 -0 -0.00113705 -0 0.000586707)
(0.000550045 0.0002638 -0 -0.00113696 -0 0.000586919)
(0.000549644 0.00025242 -0 -0.00113675 -0 0.000587102)
(0.00054914 0.000240816 -0 -0.0011364 -0 0.000587255)
(0.000548535 0.000228969 -0 -0.00113591 -0 0.000587379)
(0.00054783 0.000216859 -0 -0.0011353 -0 0.000587473)
(0.000547029 0.000204464 -0 -0.00113457 -0 0.000587538)
(0.000546131 0.000191766 -0 -0.0011337 -0 0.000587572)
(0.000545138 0.000178745 -0 -0.00113271 -0 0.000587576)
(0.000544051 0.000165382 -0 -0.0011316 -0 0.000587549)
(0.000542871 0.000151658 -0 -0.00113036 -0 0.00058749)
(0.000541598 0.000137555 -0 -0.001129 -0 0.0005874)
(0.000540235 0.000123055 -0 -0.00112751 -0 0.000587278)
(0.00053878 0.000108139 -0 -0.0011259 -0 0.000587123)
(0.000537234 9.27898e-05 -0 -0.00112417 -0 0.000586935)
(0.0005356 7.69898e-05 -0 -0.00112231 -0 0.000586712)
(0.000533875 6.07219e-05 -0 -0.00112033 -0 0.000586454)
(0.000532063 4.39694e-05 -0 -0.00111822 -0 0.000586161)
(0.000530162 2.67156e-05 -0 -0.00111599 -0 0.000585831)
(0.000528174 8.94456e-06 -0 -0.00111364 -0 0.000585465)
(0.000526099 -9.35951e-06 -0 -0.00111116 -0 0.00058506)
(0.000523938 -2.82119e-05 -0 -0.00110855 -0 0.000584616)
(0.000521692 -4.76275e-05 -0 -0.00110582 -0 0.000584133)
(0.000519361 -6.76207e-05 -0 -0.00110297 -0 0.000583609)
(0.000516947 -8.82053e-05 -0 -0.00109999 -0 0.000583043)
(0.000514449 -0.000109395 -0 -0.00109688 -0 0.000582434)
(0.00051187 -0.000131202 -0 -0.00109365 -0 0.000581783)
(0.000509211 -0.000153639 -0 -0.0010903 -0 0.000581086)
(0.000506472 -0.000176718 -0 -0.00108682 -0 0.000580345)
(0.000503655 -0.000200448 -0 -0.00108321 -0 0.000579556)
(0.000500761 -0.000224842 -0 -0.00107948 -0 0.000578721)
(0.000497793 -0.000249907 -0 -0.00107563 -0 0.000577837)
(0.00049475 -0.000275653 -0 -0.00107165 -0 0.000576903)
(0.000491636 -0.000302087 -0 -0.00106756 -0 0.000575919)
(0.000488452 -0.000329217 -0 -0.00106334 -0 0.000574883)
(0.0004852 -0.000357048 -0 -0.001059 -0 0.000573795)
(0.000481882 -0.000385586 -0 -0.00105454 -0 0.000572654)
(0.000478501 -0.000414835 -0 -0.00104996 -0 0.000571458)
(0.000475058 -0.000444797 -0 -0.00104526 -0 0.000570207)
(0.000471556 -0.000475477 -0 -0.00104046 -0 0.0005689)
(0.000467998 -0.000506873 -0 -0.00103553 -0 0.000567535)
(0.000464386 -0.000538987 -0 -0.0010305 -0 0.000566112)
(0.000460723 -0.000571817 -0 -0.00102535 -0 0.00056463)
(0.000457011 -0.000605361 -0 -0.0010201 -0 0.000563088)
(0.000453255 -0.000639615 -0 -0.00101474 -0 0.000561486)
(0.000449456 -0.000674575 -0 -0.00100928 -0 0.000559822)
(0.000445618 -0.000710235 -0 -0.00100371 -0 0.000558096)
(0.000441744 -0.000746588 -0 -0.000998051 -0 0.000556307)
(0.000437838 -0.000783626 -0 -0.000992292 -0 0.000554454)
(0.000433902 -0.000821339 -0 -0.000986439 -0 0.000552537)
(0.00042994 -0.000859716 -0 -0.000980495 -0 0.000550555)
(0.000425955 -0.000898744 -0 -0.000974463 -0 0.000548508)
(0.000421951 -0.000938412 -0 -0.000968346 -0 0.000546395)
(0.000417932 -0.000978704 -0 -0.000962147 -0 0.000544216)
(0.0004139 -0.0010196 -0 -0.000955869 -0 0.000541969)
(0.000409859 -0.00106109 -0 -0.000949515 -0 0.000539656)
(0.000405812 -0.00110316 -0 -0.000943088 -0 0.000537276)
(0.000401764 -0.00114577 -0 -0.000936592 -0 0.000534827)
(0.000397717 -0.00118892 -0 -0.000930029 -0 0.000532311)
(0.000393675 -0.00123258 -0 -0.000923403 -0 0.000529728)
(0.000389641 -0.00127673 -0 -0.000916718 -0 0.000527076)
(0.000385619 -0.00132134 -0 -0.000909975 -0 0.000524357)
(0.000381611 -0.00136639 -0 -0.00090318 2.13975e-37 0.00052157)
(0.00037762 -0.00141185 -0 -0.000896335 -2.13973e-37 0.000518715)
(0.00037365 -0.0014577 -0 -0.000889443 -0 0.000515793)
(0.000369704 -0.0015039 -0 -0.000882508 -0 0.000512804)
(0.000365784 -0.00155044 -0 -0.000875532 -0 0.000509748)
(0.000361893 -0.00159727 -0 -0.000868519 -0 0.000506626)
(0.000358034 -0.00164437 -0 -0.000861472 -0 0.000503438)
(0.000354209 -0.0016917 -0 -0.000854394 -0 0.000500185)
(0.00035042 -0.00173925 -0 -0.000847287 -0 0.000496867)
(0.00034667 -0.00178696 -0 -0.000840156 -0 0.000493486)
(0.00034296 -0.00183482 -0 -0.000833001 -0 0.000490042)
(0.000339292 -0.00188279 -0 -0.000825827 -0 0.000486535)
(0.000335669 -0.00193083 -0 -0.000818636 -0 0.000482967)
(0.000332092 -0.00197891 -0 -0.00081143 -0 0.000479338)
(0.000328561 -0.00202699 -0 -0.000804212 -0 0.000475651)
(0.000325079 -0.00207505 -0 -0.000796984 -0 0.000471904)
(0.000321647 -0.00212305 -0 -0.000789748 -0 0.000468101)
(0.000318265 -0.00217095 -0 -0.000782507 -0 0.000464242)
(0.000314934 -0.00221872 -0 -0.000775262 -0 0.000460328)
(0.000311655 -0.00226632 -0 -0.000768016 -0 0.000456361)
(0.000308428 -0.00231373 -0 -0.00076077 -0 0.000452342)
(0.000305255 -0.0023609 -0 -0.000753527 -0 0.000448272)
(0.000302134 -0.00240781 -0 -0.000746288 -0 0.000444153)
(0.000299067 -0.00245442 -0 -0.000739054 -0 0.000439987)
(0.000296053 -0.0025007 -0 -0.000731827 -0 0.000435774)
(0.000293091 -0.00254661 -0 -0.000724608 -0 0.000431517)
(0.000290183 -0.00259213 -0 -0.0007174 -0 0.000427217)
(0.000287327 -0.00263723 -0 -0.000710202 -0 0.000422875)
(0.000284522 -0.00268186 -0 -0.000703017 -0 0.000418494)
(0.00028177 -0.00272602 -0 -0.000695845 -0 0.000414076)
(0.000279067 -0.00276965 -0 -0.000688688 -0 0.000409621)
(0.000276415 -0.00281274 -0 -0.000681547 -0 0.000405131)
(0.000273812 -0.00285526 -0 -0.000674422 -0 0.000400609)
(0.000271257 -0.00289718 -0 -0.000667314 -0 0.000396057)
(0.00026875 -0.00293848 -0 -0.000660225 -0 0.000391475)
(0.000266289 -0.00297913 -0 -0.000653156 -0 0.000386866)
(0.000263874 -0.0030191 -0 -0.000646106 -0 0.000382232)
(0.000261503 -0.00305838 -0 -0.000639078 -0 0.000377575)
(0.000259175 -0.00309693 -0 -0.000632071 -0 0.000372896)
(0.000256889 -0.00313475 -0 -0.000625086 -0 0.000368197)
(0.000254644 -0.0031718 -0 -0.000618125 -0 0.00036348)
(0.00025244 -0.00320808 -0 -0.000611188 -0 0.000358748)
(0.000250274 -0.00324355 -0 -0.000604275 -0 0.000354001)
(0.000248146 -0.00327821 -0 -0.000597388 -0 0.000349242)
(0.000246054 -0.00331203 -0 -0.000590527 -0 0.000344473)
(0.000243997 -0.003345 -0 -0.000583692 -0 0.000339695)
(0.000241975 -0.00337711 -0 -0.000576885 -0 0.00033491)
(0.000239986 -0.00340834 -0 -0.000570107 -0 0.00033012)
(0.00023803 -0.00343867 -0 -0.000563357 -0 0.000325328)
(0.000236104 -0.0034681 -0 -0.000556637 -0 0.000320534)
(0.000234208 -0.00349662 -0 -0.000549948 -0 0.00031574)
(0.000232341 -0.00352421 -0 -0.00054329 -0 0.000310949)
(0.000230502 -0.00355086 -0 -0.000536664 -0 0.000306161)
(0.00022869 -0.00357657 -0 -0.00053007 -0 0.00030138)
(0.000226905 -0.00360133 -0 -0.00052351 -0 0.000296605)
(0.000225144 -0.00362512 -0 -0.000516985 -0 0.00029184)
(0.000223408 -0.00364796 -0 -0.000510494 -0 0.000287086)
(0.000221696 -0.00366982 -0 -0.000504039 -0 0.000282343)
(0.000220006 -0.00369071 -0 -0.000497621 -0 0.000277615)
(0.000218339 -0.00371062 -0 -0.000491241 -0 0.000272902)
(0.000216692 -0.00372955 -0 -0.000484899 -0 0.000268207)
(0.000215066 -0.0037475 -0 -0.000478596 -0 0.00026353)
(0.00021346 -0.00376446 -0 -0.000472333 -0 0.000258873)
(0.000211874 -0.00378044 -0 -0.000466111 -0 0.000254237)
(0.000210305 -0.00379543 -0 -0.000459931 -0 0.000249625)
(0.000208755 -0.00380943 -0 -0.000453792 -0 0.000245037)
(0.000207222 -0.00382246 -0 -0.000447697 -0 0.000240475)
(0.000205706 -0.0038345 -0 -0.000441646 -0 0.00023594)
(0.000204206 -0.00384556 -0 -0.000435639 -0 0.000231433)
(0.000202721 -0.00385564 -0 -0.000429678 -0 0.000226957)
(0.000201252 -0.00386476 -0 -0.000423763 -0 0.000222511)
(0.000199797 -0.0038729 -0 -0.000417894 -0 0.000218097)
(0.000198357 -0.00388008 -0 -0.000412073 -0 0.000213717)
(0.000196929 -0.00388631 -0 -0.0004063 -0 0.000209371)
(0.000195515 -0.00389158 -0 -0.000400576 -0 0.000205061)
(0.000194113 -0.00389591 -0 -0.000394901 -0 0.000200788)
(0.000192723 -0.0038993 -0 -0.000389275 -0 0.000196552)
(0.000191345 -0.00390177 -0 -0.0003837 -0 0.000192356)
(0.000189977 -0.00390331 -0 -0.000378176 -0 0.000188199)
(0.00018862 -0.00390393 -0 -0.000372702 -0 0.000184083)
(0.000187272 -0.00390366 -0 -0.000367281 -0 0.000180008)
(0.000185934 -0.00390248 -0 -0.000361911 -0 0.000175976)
(0.000184605 -0.00390043 -0 -0.000356593 -0 0.000171988)
(0.000183284 -0.0038975 -0 -0.000351327 -0 0.000168044)
(0.00018197 -0.00389371 -0 -0.000346114 -0 0.000164144)
(0.000180664 -0.00388907 -0 -0.000340954 -0 0.000160291)
(0.000179364 -0.00388359 -0 -0.000335847 -0 0.000156483)
(0.00017807 -0.00387728 -0 -0.000330793 -0 0.000152723)
(0.000176781 -0.00387016 -0 -0.000325792 -0 0.000149011)
(0.000175497 -0.00386224 -0 -0.000320844 -0 0.000145347)
(0.000174217 -0.00385353 -0 -0.000315948 -0 0.000141731)
(0.000172941 -0.00384405 -0 -0.000311106 -0 0.000138165)
(0.000171668 -0.00383381 -0 -0.000306317 -0 0.000134649)
(0.000170397 -0.00382282 -0 -0.00030158 -0 0.000131183)
(0.000169128 -0.00381111 -0 -0.000296896 -0 0.000127768)
(0.00016786 -0.00379869 -0 -0.000292264 -0 0.000124404)
(0.000166592 -0.00378556 -0 -0.000287683 -0 0.000121091)
(0.000165325 -0.00377176 -0 -0.000283155 -0 0.00011783)
(0.000164057 -0.00375728 -0 -0.000278678 -0 0.000114621)
(0.000162788 -0.00374216 -0 -0.000274252 -0 0.000111464)
(0.000161517 -0.00372641 -0 -0.000269876 -0 0.000108359)
(0.000160244 -0.00371005 -0 -0.000265551 -0 0.000105306)
(0.000158969 -0.00369308 -0 -0.000261275 -0 0.000102307)
(0.00015769 -0.00367554 -0 -0.00025705 -0 9.93598e-05)
(0.000156407 -0.00365743 -0 -0.000252873 -0 9.64654e-05)
(0.00015512 -0.00363879 -0 -0.000248744 -0 9.36238e-05)
(0.000153829 -0.00361961 -0 -0.000244664 -0 9.08349e-05)
(0.000152533 -0.00359993 -0 -0.000240631 -0 8.80985e-05)
(0.000151231 -0.00357976 -0 -0.000236646 -0 8.54147e-05)
(0.000149923 -0.00355912 -0 -0.000232707 -0 8.27833e-05)
(0.00014861 -0.00353803 -0 -0.000228814 -0 8.0204e-05)
(0.00014729 -0.0035165 -0 -0.000224967 -0 7.76768e-05)
(0.000145964 -0.00349456 -0 -0.000221165 -0 7.52014e-05)
(0.000144631 -0.00347223 -0 -0.000217408 -0 7.27775e-05)
(0.000143291 -0.00344952 -0 -0.000213695 -0 7.04048e-05)
(0.000141943 -0.00342645 -0 -0.000210026 -0 6.8083e-05)
(0.000140589 -0.00340304 -0 -0.000206401 -0 6.58119e-05)
(0.000139228 -0.00337931 -0 -0.000202819 -0 6.35909e-05)
(0.000137859 -0.00335528 -0 -0.000199279 -0 6.14197e-05)