/*--------------------------------*- C++ -*----------------------------------*\
| =========                 |                                                 |
| \\      /  F ield         | OpenFOAM: The Open Source CFD Toolbox           |
|  \\    /   O peration     | Version:  2512                                  |
|   \\  /    A nd           | Website:  www.openfoam.com                      |
|    \\/     M anipulation  |                                                 |
\*---------------------------------------------------------------------------*/
FoamFile
{
    version     2.0;
    format      ascii;
    arch        "LSB;label=32;scalar=64";
    class       volVectorField;
    location    "2978";
    object      U;
}
// * * * * * * * * * * * * * * * * * * * * * * * * * * * * * * * * * * * * * //

dimensions      [0 1 -1 0 0 0 0];

internalField   nonuniform List<vector> 
66422
(
(0.296823 0.0387211 0)
(0.296306 0.0369381 0)
(0.296263 0.0364551 0)
(0.296358 0.0362671 0)
(0.29644 0.036156 0)
(0.296506 0.0360788 0)
(0.296559 0.0360209 0)
(0.296601 0.035975 0)
(0.296636 0.0359374 0)
(0.296665 0.0359057 0)
(0.296689 0.0358786 0)
(0.296709 0.035855 0)
(0.296728 0.0358341 0)
(0.296744 0.0358156 0)
(0.296758 0.0357989 0)
(0.296771 0.0357838 0)
(0.296783 0.03577 0)
(0.296794 0.0357574 0)
(0.296804 0.0357458 0)
(0.296813 0.0357351 0)
(0.296822 0.0357252 0)
(0.296831 0.035716 0)
(0.296839 0.0357075 0)
(0.296846 0.0356996 0)
(0.296854 0.0356921 0)
(0.296861 0.0356852 0)
(0.296868 0.0356788 0)
(0.296875 0.0356728 0)
(0.296881 0.0356672 0)
(0.296888 0.0356621 0)
(0.296894 0.0356573 0)
(0.296901 0.0356528 0)
(0.296907 0.0356487 0)
(0.296913 0.035645 0)
(0.29692 0.0356415 0)
(0.296926 0.0356384 0)
(0.296932 0.0356357 0)
(0.296939 0.0356332 0)
(0.296945 0.0356311 0)
(0.296952 0.0356292 0)
(0.296959 0.0356277 0)
(0.296966 0.0356265 0)
(0.296973 0.0356256 0)
(0.29698 0.035625 0)
(0.296987 0.0356247 0)
(0.296994 0.0356248 0)
(0.297002 0.0356251 0)
(0.29701 0.0356258 0)
(0.297018 0.0356269 0)
(0.297026 0.0356282 0)
(0.297034 0.03563 0)
(0.297043 0.035632 0)
(0.297052 0.0356345 0)
(0.297061 0.0356373 0)
(0.29707 0.0356404 0)
(0.29708 0.035644 0)
(0.29709 0.0356479 0)
(0.2971 0.0356523 0)
(0.29711 0.035657 0)
(0.297121 0.0356622 0)
(0.297132 0.0356678 0)
(0.297144 0.0356738 0)
(0.297155 0.0356803 0)
(0.297167 0.0356872 0)
(0.29718 0.0356946 0)
(0.297192 0.0357025 0)
(0.297205 0.0357109 0)
(0.297219 0.0357197 0)
(0.297233 0.0357291 0)
(0.297247 0.035739 0)
(0.297261 0.0357494 0)
(0.297276 0.0357604 0)
(0.297291 0.0357719 0)
(0.297307 0.0357839 0)
(0.297323 0.0357966 0)
(0.297339 0.0358098 0)
(0.297356 0.0358236 0)
(0.297373 0.035838 0)
(0.29739 0.035853 0)
(0.297408 0.0358686 0)
(0.297427 0.0358848 0)
(0.297445 0.0359017 0)
(0.297464 0.0359192 0)
(0.297483 0.0359374 0)
(0.297503 0.0359562 0)
(0.297523 0.0359757 0)
(0.297543 0.0359958 0)
(0.297564 0.0360166 0)
(0.297585 0.0360381 0)
(0.297606 0.0360603 0)
(0.297628 0.0360832 0)
(0.29765 0.0361068 0)
(0.297672 0.036131 0)
(0.297695 0.036156 0)
(0.297717 0.0361817 0)
(0.29774 0.036208 0)
(0.297764 0.0362351 0)
(0.297787 0.0362629 0)
(0.297811 0.0362914 0)
(0.297835 0.0363205 4.27949e-37)
(0.297859 0.0363504 -4.27946e-37)
(0.297883 0.036381 0)
(0.297908 0.0364123 0)
(0.297932 0.0364442 0)
(0.297957 0.0364769 0)
(0.297982 0.0365102 0)
(0.298007 0.0365442 0)
(0.298032 0.0365789 0)
(0.298057 0.0366142 0)
(0.298082 0.0366502 0)
(0.298107 0.0366868 0)
(0.298132 0.0367241 0)
(0.298157 0.036762 0)
(0.298182 0.0368005 0)
(0.298207 0.0368396 0)
(0.298232 0.0368792 0)
(0.298257 0.0369195 0)
(0.298281 0.0369603 0)
(0.298306 0.0370017 0)
(0.29833 0.0370436 0)
(0.298355 0.0370861 0)
(0.298379 0.037129 0)
(0.298403 0.0371724 0)
(0.298426 0.0372163 0)
(0.29845 0.0372607 0)
(0.298473 0.0373055 0)
(0.298496 0.0373507 0)
(0.298518 0.0373963 0)
(0.298541 0.0374424 0)
(0.298563 0.0374887 0)
(0.298584 0.0375355 0)
(0.298606 0.0375826 0)
(0.298627 0.03763 0)
(0.298647 0.0376777 0)
(0.298668 0.0377256 0)
(0.298688 0.0377738 0)
(0.298707 0.0378223 0)
(0.298726 0.037871 0)
(0.298745 0.0379199 0)
(0.298763 0.037969 0)
(0.298781 0.0380182 0)
(0.298798 0.0380676 0)
(0.298815 0.0381171 0)
(0.298831 0.0381667 0)
(0.298847 0.0382163 0)
(0.298863 0.0382661 0)
(0.298877 0.0383159 0)
(0.298892 0.0383657 0)
(0.298906 0.0384156 0)
(0.298919 0.0384654 0)
(0.298932 0.0385152 0)
(0.298945 0.038565 0)
(0.298957 0.0386147 0)
(0.298968 0.0386643 0)
(0.298979 0.0387138 0)
(0.298989 0.0387633 0)
(0.298999 0.0388125 0)
(0.299008 0.0388617 0)
(0.299017 0.0389107 0)
(0.299026 0.0389595 0)
(0.299033 0.0390081 0)
(0.29904 0.0390564 0)
(0.299047 0.0391046 0)
(0.299053 0.0391525 0)
(0.299059 0.0392002 0)
(0.299064 0.0392476 0)
(0.299069 0.0392947 0)
(0.299073 0.0393415 0)
(0.299076 0.039388 0)
(0.29908 0.0394342 0)
(0.299082 0.0394801 0)
(0.299084 0.0395256 0)
(0.299086 0.0395707 0)
(0.299087 0.0396155 0)
(0.299087 0.0396599 0)
(0.299088 0.0397039 0)
(0.299087 0.0397475 0)
(0.299086 0.0397907 0)
(0.299085 0.0398334 0)
(0.299083 0.0398757 0)
(0.299081 0.0399176 0)
(0.299078 0.039959 0)
(0.299075 0.04 0)
(0.299072 0.0400405 0)
(0.299068 0.0400805 0)
(0.299063 0.0401201 0)
(0.299059 0.0401591 0)
(0.299053 0.0401977 0)
(0.299048 0.0402357 0)
(0.299042 0.0402733 0)
(0.299035 0.0403103 0)
(0.299028 0.0403469 0)
(0.299021 0.0403829 0)
(0.299014 0.0404183 0)
(0.299006 0.0404533 0)
(0.298998 0.0404877 0)
(0.298989 0.0405215 0)
(0.29898 0.0405549 0)
(0.298971 0.0405877 0)
(0.298962 0.0406199 0)
(0.298952 0.0406516 0)
(0.298942 0.0406828 0)
(0.298931 0.0407134 0)
(0.298921 0.0407435 0)
(0.29891 0.040773 0)
(0.298899 0.040802 0)
(0.298887 0.0408304 0)
(0.298876 0.0408583 0)
(0.298864 0.0408856 0)
(0.298852 0.0409124 0)
(0.29884 0.0409387 0)
(0.298827 0.0409644 0)
(0.298815 0.0409896 0)
(0.298802 0.0410142 0)
(0.298789 0.0410384 0)
(0.298776 0.041062 0)
(0.298763 0.041085 0)
(0.29875 0.0411076 0)
(0.298736 0.0411297 0)
(0.298723 0.0411512 0)
(0.298709 0.0411723 0)
(0.298696 0.0411928 0)
(0.298682 0.0412129 0)
(0.298668 0.0412324 0)
(0.298654 0.0412515 0)
(0.29864 0.0412701 0)
(0.298626 0.0412883 0)
(0.298612 0.041306 0)
(0.298598 0.0413232 0)
(0.298584 0.04134 0)
(0.29857 0.0413564 0)
(0.298556 0.0413723 0)
(0.298541 0.0413877 0)
(0.298527 0.0414028 0)
(0.298513 0.0414175 0)
(0.298499 0.0414317 0)
(0.298485 0.0414456 0)
(0.298471 0.041459 0)
(0.298457 0.0414721 0)
(0.298443 0.0414848 0)
(0.29843 0.0414971 0)
(0.298416 0.0415091 0)
(0.298402 0.0415207 0)
(0.298389 0.041532 0)
(0.298375 0.0415429 0)
(0.298362 0.0415535 0)
(0.298348 0.0415638 0)
(0.298335 0.0415738 0)
(0.298322 0.0415835 0)
(0.298309 0.0415928 0)
(0.298296 0.0416019 0)
(0.298283 0.0416107 0)
(0.29827 0.0416192 0)
(0.298257 0.0416275 0)
(0.298245 0.0416354 0)
(0.298232 0.0416432 0)
(0.29822 0.0416506 0)
(0.298208 0.0416579 0)
(0.298196 0.0416649 0)
(0.298184 0.0416716 0)
(0.298172 0.0416782 0)
(0.29816 0.0416845 0)
(0.298148 0.0416906 0)
(0.298137 0.0416965 0)
(0.298126 0.0417022 0)
(0.298114 0.0417078 0)
(0.298103 0.0417131 0)
(0.298092 0.0417182 0)
(0.298081 0.0417232 0)
(0.29807 0.041728 0)
(0.29806 0.0417326 0)
(0.298049 0.0417371 0)
(0.298039 0.0417414 0)
(0.298028 0.0417455 0)
(0.298018 0.0417495 0)
(0.298008 0.0417533 0)
(0.297998 0.041757 0)
(0.297988 0.0417605 0)
(0.297978 0.0417639 0)
(0.297968 0.0417671 0)
(0.297958 0.0417702 0)
(0.297948 0.0417732 0)
(0.297939 0.041776 0)
(0.297929 0.0417786 0)
(0.297919 0.0417811 0)
(0.297909 0.0417834 0)
(0.297899 0.0417856 0)
(0.297889 0.0417876 0)
(0.297879 0.0417894 0)
(0.297869 0.0417911 0)
(0.297858 0.0417925 0)
(0.297847 0.0417936 0)
(0.297835 0.0417945 0)
(0.297822 0.0417951 0)
(0.297809 0.0417953 0)
(0.297793 0.041795 0)
(0.297776 0.041794 0)
(0.297754 0.0417922 0)
(0.297724 0.0417901 0)
(0.297679 0.0417907 0)
(0.296854 0.0398385 0)
(0.296122 0.0382268 0)
(0.295823 0.0376488 0)
(0.295735 0.0374176 0)
(0.295736 0.0373131 0)
(0.295776 0.0372592 0)
(0.29583 0.0372259 0)
(0.295886 0.0372018 0)
(0.295941 0.0371823 0)
(0.295991 0.0371656 0)
(0.296038 0.0371508 0)
(0.29608 0.0371374 0)
(0.296119 0.0371253 0)
(0.296155 0.0371142 0)
(0.296188 0.0371039 0)
(0.296218 0.0370945 0)
(0.296247 0.0370857 0)
(0.296274 0.0370774 0)
(0.296299 0.0370698 0)
(0.296323 0.0370626 0)
(0.296345 0.0370559 0)
(0.296367 0.0370496 0)
(0.296388 0.0370437 0)
(0.296408 0.0370381 0)
(0.296428 0.0370329 0)
(0.296447 0.037028 0)
(0.296465 0.0370233 0)
(0.296484 0.037019 0)
(0.296502 0.0370149 0)
(0.29652 0.0370111 0)
(0.296537 0.0370075 0)
(0.296555 0.0370041 0)
(0.296572 0.037001 0)
(0.29659 0.0369981 0)
(0.296607 0.0369954 0)
(0.296625 0.036993 0)
(0.296643 0.0369907 0)
(0.296661 0.0369887 0)
(0.296679 0.0369869 0)
(0.296698 0.0369853 0)
(0.296717 0.036984 0)
(0.296736 0.0369828 0)
(0.296756 0.0369818 0)
(0.296776 0.0369811 0)
(0.296796 0.0369806 0)
(0.296817 0.0369804 0)
(0.296839 0.0369803 0)
(0.296861 0.0369805 0)
(0.296883 0.0369809 0)
(0.296906 0.0369816 0)
(0.29693 0.0369825 0)
(0.296955 0.0369837 0)
(0.29698 0.0369851 0)
(0.297006 0.0369868 0)
(0.297033 0.0369888 0)
(0.29706 0.0369911 0)
(0.297088 0.0369936 0)
(0.297117 0.0369964 0)
(0.297147 0.0369996 0)
(0.297178 0.037003 0)
(0.29721 0.0370068 0)
(0.297242 0.0370108 0)
(0.297276 0.0370153 0)
(0.29731 0.03702 0)
(0.297346 0.0370251 0)
(0.297382 0.0370306 0)
(0.29742 0.0370364 0)
(0.297458 0.0370427 0)
(0.297497 0.0370492 0)
(0.297538 0.0370562 0)
(0.29758 0.0370636 0)
(0.297622 0.0370714 0)
(0.297666 0.0370797 0)
(0.297711 0.0370883 0)
(0.297757 0.0370974 0)
(0.297804 0.037107 0)
(0.297852 0.037117 0)
(0.297901 0.0371274 0)
(0.297952 0.0371384 0)
(0.298003 0.0371498 0)
(0.298055 0.0371617 0)
(0.298109 0.0371741 0)
(0.298164 0.037187 0)
(0.298219 0.0372004 0)
(0.298276 0.0372144 0)
(0.298334 0.0372288 0)
(0.298393 0.0372438 0)
(0.298453 0.0372593 0)
(0.298513 0.0372754 0)
(0.298575 0.037292 0)
(0.298638 0.0373092 0)
(0.298701 0.0373269 0)
(0.298766 0.0373452 0)
(0.298831 0.0373641 0)
(0.298897 0.0373835 0)
(0.298964 0.0374035 0)
(0.299032 0.0374241 0)
(0.2991 0.0374452 0)
(0.299169 0.0374669 0)
(0.299239 0.0374892 0)
(0.299309 0.037512 0)
(0.29938 0.0375354 0)
(0.299451 0.0375594 0)
(0.299523 0.037584 0)
(0.299595 0.0376091 0)
(0.299668 0.0376348 0)
(0.299741 0.037661 0)
(0.299814 0.0376878 0)
(0.299887 0.0377151 0)
(0.299961 0.037743 0)
(0.300034 0.0377714 0)
(0.300108 0.0378003 0)
(0.300182 0.0378298 0)
(0.300255 0.0378597 0)
(0.300329 0.0378902 0)
(0.300402 0.0379212 0)
(0.300475 0.0379526 0)
(0.300548 0.0379845 0)
(0.300621 0.0380169 0)
(0.300693 0.0380497 0)
(0.300765 0.038083 0)
(0.300836 0.0381166 0)
(0.300907 0.0381507 0)
(0.300977 0.0381852 0)
(0.301046 0.0382201 0)
(0.301115 0.0382554 0)
(0.301183 0.038291 0)
(0.301251 0.038327 0)
(0.301317 0.0383633 0)
(0.301383 0.0383999 0)
(0.301448 0.0384368 0)
(0.301512 0.038474 0)
(0.301575 0.0385115 0)
(0.301637 0.0385492 0)
(0.301697 0.0385871 0)
(0.301757 0.0386253 0)
(0.301816 0.0386637 0)
(0.301873 0.0387023 0)
(0.301929 0.0387411 0)
(0.301984 0.03878 0)
(0.302038 0.038819 0)
(0.302091 0.0388582 0)
(0.302142 0.0388975 0)
(0.302192 0.0389369 0)
(0.30224 0.0389764 0)
(0.302288 0.039016 0)
(0.302333 0.0390555 0)
(0.302378 0.0390952 0)
(0.302421 0.0391348 0)
(0.302462 0.0391745 0)
(0.302502 0.0392141 0)
(0.302541 0.0392537 0)
(0.302578 0.0392933 0)
(0.302613 0.0393328 0)
(0.302648 0.0393722 0)
(0.30268 0.0394116 0)
(0.302711 0.0394509 0)
(0.302741 0.03949 0)
(0.302769 0.039529 0)
(0.302795 0.0395679 0)
(0.30282 0.0396066 0)
(0.302844 0.0396452 0)
(0.302866 0.0396836 0)
(0.302886 0.0397218 0)
(0.302905 0.0397598 0)
(0.302922 0.0397976 0)
(0.302938 0.0398352 0)
(0.302953 0.0398725 0)
(0.302966 0.0399096 0)
(0.302977 0.0399464 0)
(0.302987 0.039983 0)
(0.302995 0.0400193 0)
(0.303002 0.0400553 0)
(0.303008 0.040091 0)
(0.303012 0.0401264 0)
(0.303014 0.0401615 0)
(0.303016 0.0401962 0)
(0.303015 0.0402307 0)
(0.303014 0.0402648 0)
(0.303011 0.0402985 0)
(0.303006 0.0403319 0)
(0.303001 0.0403649 0)
(0.302994 0.0403976 0)
(0.302986 0.0404299 0)
(0.302976 0.0404618 0)
(0.302965 0.0404933 0)
(0.302953 0.0405244 0)
(0.30294 0.0405551 0)
(0.302925 0.0405854 0)
(0.30291 0.0406153 0)
(0.302893 0.0406448 0)
(0.302875 0.0406739 0)
(0.302856 0.0407026 0)
(0.302836 0.0407308 0)
(0.302815 0.0407586 0)
(0.302792 0.040786 0)
(0.302769 0.0408129 0)
(0.302745 0.0408394 0)
(0.30272 0.0408655 0)
(0.302693 0.0408911 0)
(0.302666 0.0409163 0)
(0.302639 0.040941 0)
(0.30261 0.0409653 0)
(0.30258 0.0409892 0)
(0.30255 0.0410126 0)
(0.302519 0.0410356 0)
(0.302487 0.0410581 0)
(0.302454 0.0410802 0)
(0.302421 0.0411018 0)
(0.302387 0.041123 0)
(0.302353 0.0411438 0)
(0.302318 0.0411641 0)
(0.302282 0.041184 0)
(0.302246 0.0412035 0)
(0.302209 0.0412225 0)
(0.302172 0.0412411 0)
(0.302134 0.0412593 0)
(0.302096 0.041277 0)
(0.302058 0.0412944 0)
(0.302019 0.0413113 0)
(0.30198 0.0413279 0)
(0.30194 0.041344 0)
(0.301901 0.0413597 0)
(0.301861 0.041375 0)
(0.301821 0.04139 0)
(0.30178 0.0414045 0)
(0.30174 0.0414187 0)
(0.301699 0.0414325 0)
(0.301658 0.0414459 0)
(0.301618 0.041459 0)
(0.301577 0.0414717 0)
(0.301536 0.0414841 0)
(0.301495 0.0414961 0)
(0.301453 0.0415078 0)
(0.301412 0.0415191 0)
(0.301371 0.0415301 0)
(0.301331 0.0415408 0)
(0.30129 0.0415512 0)
(0.301249 0.0415613 0)
(0.301208 0.041571 0)
(0.301168 0.0415805 0)
(0.301127 0.0415897 0)
(0.301087 0.0415985 0)
(0.301047 0.0416072 0)
(0.301007 0.0416155 0)
(0.300968 0.0416236 0)
(0.300928 0.0416314 0)
(0.300889 0.041639 0)
(0.30085 0.0416463 0)
(0.300812 0.0416534 0)
(0.300773 0.0416602 0)
(0.300735 0.0416669 0)
(0.300698 0.0416733 0)
(0.30066 0.0416795 0)
(0.300623 0.0416854 0)
(0.300586 0.0416912 0)
(0.300549 0.0416968 0)
(0.300513 0.0417022 0)
(0.300477 0.0417074 0)
(0.300442 0.0417124 0)
(0.300406 0.0417173 0)
(0.300371 0.041722 0)
(0.300337 0.0417265 0)
(0.300303 0.0417308 0)
(0.300269 0.041735 0)
(0.300235 0.0417391 0)
(0.300202 0.041743 0)
(0.300169 0.0417468 0)
(0.300137 0.0417504 0)
(0.300104 0.0417539 0)
(0.300072 0.0417573 0)
(0.300041 0.0417605 0)
(0.30001 0.0417637 0)
(0.299979 0.0417667 0)
(0.299948 0.0417696 0)
(0.299917 0.0417724 0)
(0.299887 0.0417751 0)
(0.299857 0.0417777 0)
(0.299827 0.0417802 0)
(0.299798 0.0417826 0)
(0.299768 0.0417849 0)
(0.299739 0.0417871 0)
(0.29971 0.0417893 0)
(0.299681 0.0417913 0)
(0.299651 0.0417933 0)
(0.299622 0.0417953 0)
(0.299592 0.0417971 0)
(0.299563 0.041799 0)
(0.299532 0.0418007 0)
(0.299501 0.0418025 0)
(0.29947 0.0418043 0)
(0.299437 0.0418061 0)
(0.299403 0.0418081 0)
(0.299367 0.0418103 0)
(0.299328 0.0418128 0)
(0.299286 0.0418161 0)
(0.299239 0.0418204 0)
(0.299187 0.0418266 0)
(0.299122 0.0418361 0)
(0.299041 0.0418481 0)
(0.296923 0.0405256 0)
(0.296352 0.0390682 0)
(0.295917 0.0383027 0)
(0.295641 0.0379113 0)
(0.295495 0.0377132 0)
(0.295434 0.0376115 0)
(0.295423 0.0375567 0)
(0.295439 0.0375248 0)
(0.29547 0.0375045 0)
(0.295509 0.0374902 0)
(0.29555 0.0374791 0)
(0.295593 0.0374699 0)
(0.295634 0.0374618 0)
(0.295675 0.0374545 0)
(0.295715 0.0374477 0)
(0.295753 0.0374414 0)
(0.295789 0.0374354 0)
(0.295824 0.0374297 0)
(0.295858 0.0374243 0)
(0.29589 0.0374192 0)
(0.295922 0.0374142 0)
(0.295952 0.0374095 0)
(0.295982 0.037405 0)
(0.296011 0.0374007 0)
(0.296039 0.0373965 0)
(0.296067 0.0373926 0)
(0.296095 0.0373888 0)
(0.296122 0.0373851 0)
(0.296149 0.0373816 0)
(0.296176 0.0373783 0)
(0.296202 0.0373751 0)
(0.296229 0.0373721 0)
(0.296256 0.0373692 0)
(0.296283 0.0373665 0)
(0.29631 0.0373639 0)
(0.296337 0.0373614 0)
(0.296365 0.0373591 0)
(0.296393 0.037357 0)
(0.296421 0.0373549 0)
(0.29645 0.0373531 0)
(0.29648 0.0373513 0)
(0.29651 0.0373498 0)
(0.29654 0.0373483 0)
(0.296572 0.0373471 0)
(0.296604 0.037346 0)
(0.296637 0.037345 0)
(0.296671 0.0373443 0)
(0.296706 0.0373437 0)
(0.296741 0.0373433 0)
(0.296778 0.037343 0)
(0.296816 0.037343 0)
(0.296855 0.0373431 0)
(0.296895 0.0373435 0)
(0.296936 0.037344 0)
(0.296978 0.0373448 0)
(0.297022 0.0373458 0)
(0.297066 0.037347 0)
(0.297113 0.0373485 0)
(0.29716 0.0373502 0)
(0.297209 0.0373521 0)
(0.29726 0.0373544 0)
(0.297311 0.0373569 0)
(0.297365 0.0373596 0)
(0.29742 0.0373627 0)
(0.297476 0.037366 0)
(0.297534 0.0373697 0)
(0.297594 0.0373737 0)
(0.297656 0.0373779 0)
(0.297719 0.0373826 0)
(0.297784 0.0373876 0)
(0.29785 0.0373929 0)
(0.297918 0.0373986 0)
(0.297989 0.0374047 0)
(0.29806 0.0374111 0)
(0.298134 0.037418 0)
(0.298209 0.0374252 0)
(0.298286 0.0374329 0)
(0.298365 0.037441 0)
(0.298446 0.0374496 0)
(0.298529 0.0374586 0)
(0.298613 0.037468 0)
(0.298699 0.0374779 0)
(0.298787 0.0374883 0)
(0.298876 0.0374992 0)
(0.298968 0.0375105 0)
(0.299061 0.0375224 0)
(0.299155 0.0375348 0)
(0.299252 0.0375477 0)
(0.29935 0.0375611 0)
(0.299449 0.0375751 0)
(0.29955 0.0375896 0)
(0.299653 0.0376046 0)
(0.299757 0.0376202 0)
(0.299863 0.0376364 0)
(0.299969 0.0376531 0)
(0.300078 0.0376704 0)
(0.300187 0.0376882 0)
(0.300298 0.0377067 0)
(0.30041 0.0377257 0)
(0.300522 0.0377453 0)
(0.300636 0.0377655 0)
(0.300751 0.0377862 0)
(0.300867 0.0378076 0)
(0.300983 0.0378295 0)
(0.301101 0.037852 0)
(0.301219 0.0378751 0)
(0.301337 0.0378988 0)
(0.301456 0.0379231 0)
(0.301575 0.0379479 0)
(0.301695 0.0379733 0)
(0.301815 0.0379992 0)
(0.301935 0.0380257 0)
(0.302055 0.0380527 0)
(0.302176 0.0380803 0)
(0.302296 0.0381085 0)
(0.302416 0.0381371 0)
(0.302535 0.0381663 0)
(0.302655 0.0381959 0)
(0.302773 0.0382261 0)
(0.302892 0.0382567 0)
(0.303009 0.0382879 0)
(0.303127 0.0383194 0)
(0.303243 0.0383515 0)
(0.303358 0.0383839 0)
(0.303473 0.0384168 0)
(0.303586 0.0384501 0)
(0.303699 0.0384838 0)
(0.30381 0.0385178 0)
(0.30392 0.0385523 0)
(0.304029 0.0385871 0)
(0.304136 0.0386222 0)
(0.304242 0.0386576 0)
(0.304346 0.0386933 0)
(0.304449 0.0387294 0)
(0.30455 0.0387656 0)
(0.304649 0.0388022 0)
(0.304747 0.038839 0)
(0.304843 0.038876 0)
(0.304937 0.0389132 0)
(0.305029 0.0389506 0)
(0.305119 0.0389881 0)
(0.305207 0.0390258 0)
(0.305293 0.0390637 0)
(0.305376 0.0391017 0)
(0.305458 0.0391397 0)
(0.305538 0.0391779 0)
(0.305615 0.0392161 0)
(0.30569 0.0392544 0)
(0.305763 0.0392928 0)
(0.305833 0.0393311 0)
(0.305901 0.0393695 0)
(0.305967 0.0394078 0)
(0.306031 0.0394461 0)
(0.306092 0.0394844 0)
(0.30615 0.0395227 0)
(0.306207 0.0395608 0)
(0.30626 0.0395989 0)
(0.306312 0.0396369 0)
(0.306361 0.0396748 0)
(0.306407 0.0397126 0)
(0.306451 0.0397502 0)
(0.306492 0.0397877 0)
(0.306531 0.039825 0)
(0.306568 0.0398621 0)
(0.306602 0.039899 0)
(0.306634 0.0399358 0)
(0.306663 0.0399723 0)
(0.30669 0.0400086 0)
(0.306714 0.0400447 0)
(0.306736 0.0400805 0)
(0.306755 0.0401161 0)
(0.306772 0.0401514 0)
(0.306787 0.0401864 0)
(0.306799 0.0402211 0)
(0.306809 0.0402556 0)
(0.306816 0.0402897 0)
(0.306822 0.0403235 0)
(0.306824 0.040357 0)
(0.306825 0.0403902 0)
(0.306823 0.040423 0)
(0.30682 0.0404555 0)
(0.306814 0.0404876 0)
(0.306805 0.0405194 0)
(0.306795 0.0405508 0)
(0.306782 0.0405818 0)
(0.306768 0.0406124 0)
(0.306751 0.0406426 0)
(0.306733 0.0406725 0)
(0.306712 0.0407019 0)
(0.306689 0.040731 0)
(0.306665 0.0407596 0)
(0.306638 0.0407878 0)
(0.30661 0.0408156 0)
(0.30658 0.040843 0)
(0.306548 0.0408699 0)
(0.306514 0.0408964 0)
(0.306479 0.0409225 0)
(0.306442 0.0409482 0)
(0.306404 0.0409734 0)
(0.306364 0.0409982 0)
(0.306322 0.0410225 0)
(0.306279 0.0410464 0)
(0.306234 0.0410698 0)
(0.306188 0.0410928 0)
(0.306141 0.0411153 0)
(0.306093 0.0411375 0)
(0.306043 0.0411591 0)
(0.305992 0.0411803 0)
(0.305939 0.0412011 0)
(0.305886 0.0412214 0)
(0.305832 0.0412413 0)
(0.305776 0.0412607 0)
(0.30572 0.0412798 0)
(0.305663 0.0412983 0)
(0.305605 0.0413165 0)
(0.305546 0.0413342 0)
(0.305486 0.0413514 0)
(0.305425 0.0413683 0)
(0.305364 0.0413847 0)
(0.305302 0.0414008 0)
(0.30524 0.0414164 0)
(0.305177 0.0414316 0)
(0.305113 0.0414464 0)
(0.305049 0.0414608 0)
(0.304985 0.0414748 0)
(0.30492 0.0414884 0)
(0.304855 0.0415016 0)
(0.304789 0.0415145 0)
(0.304724 0.0415269 0)
(0.304658 0.0415391 0)
(0.304592 0.0415508 0)
(0.304526 0.0415622 0)
(0.304459 0.0415733 0)
(0.304393 0.041584 0)
(0.304327 0.0415943 0)
(0.30426 0.0416044 0)
(0.304194 0.0416141 0)
(0.304127 0.0416235 0)
(0.304061 0.0416326 0)
(0.303995 0.0416414 0)
(0.303929 0.0416499 0)
(0.303864 0.0416581 0)
(0.303798 0.0416661 0)
(0.303733 0.0416737 0)
(0.303668 0.0416811 0)
(0.303603 0.0416882 0)
(0.303539 0.0416951 0)
(0.303475 0.0417017 0)
(0.303412 0.0417081 0)
(0.303348 0.0417142 0)
(0.303285 0.0417202 0)
(0.303223 0.0417259 0)
(0.303161 0.0417313 0)
(0.3031 0.0417366 0)
(0.303038 0.0417417 0)
(0.302978 0.0417466 0)
(0.302918 0.0417512 0)
(0.302858 0.0417557 0)
(0.302799 0.0417601 0)
(0.30274 0.0417642 0)
(0.302682 0.0417682 0)
(0.302625 0.0417721 0)
(0.302568 0.0417757 0)
(0.302511 0.0417793 0)
(0.302455 0.0417827 0)
(0.3024 0.0417859 0)
(0.302345 0.041789 0)
(0.302291 0.0417921 0)
(0.302237 0.0417949 0)
(0.302184 0.0417977 0)
(0.302131 0.0418004 0)
(0.302078 0.0418029 0)
(0.302027 0.0418054 0)
(0.301975 0.0418078 0)
(0.301924 0.0418101 0)
(0.301874 0.0418123 0)
(0.301824 0.0418144 0)
(0.301774 0.0418165 0)
(0.301725 0.0418185 0)
(0.301676 0.0418205 0)
(0.301627 0.0418225 0)
(0.301578 0.0418244 0)
(0.30153 0.0418263 0)
(0.301481 0.0418282 0)
(0.301433 0.0418301 0)
(0.301384 0.041832 0)
(0.301336 0.0418341 0)
(0.301286 0.0418362 0)
(0.301237 0.0418385 0)
(0.301186 0.0418411 0)
(0.301134 0.0418439 0)
(0.301081 0.0418472 0)
(0.301026 0.0418511 0)
(0.300968 0.0418559 0)
(0.300907 0.041862 0)
(0.300843 0.0418696 0)
(0.300773 0.0418796 0)
(0.300699 0.0418925 0)
(0.300614 0.0419088 0)
(0.300513 0.0419251 0)
(0.296956 0.0408417 0)
(0.29655 0.0395202 0)
(0.296118 0.0386588 0)
(0.29576 0.0381333 0)
(0.29551 0.0378235 0)
(0.295351 0.0376428 0)
(0.295259 0.0375364 0)
(0.295212 0.0374725 0)
(0.295196 0.0374328 0)
(0.2952 0.0374072 0)
(0.295216 0.0373898 0)
(0.295241 0.0373772 0)
(0.295271 0.0373677 0)
(0.295304 0.0373599 0)
(0.295339 0.0373534 0)
(0.295375 0.0373476 0)
(0.295411 0.0373424 0)
(0.295447 0.0373375 0)
(0.295483 0.037333 0)
(0.295519 0.0373286 0)
(0.295554 0.0373244 0)
(0.295589 0.0373203 0)
(0.295623 0.0373164 0)
(0.295658 0.0373126 0)
(0.295691 0.0373088 0)
(0.295725 0.0373052 0)
(0.295759 0.0373016 0)
(0.295792 0.0372981 0)
(0.295825 0.0372947 0)
(0.295859 0.0372914 0)
(0.295892 0.0372882 0)
(0.295926 0.037285 0)
(0.29596 0.0372819 0)
(0.295994 0.0372789 0)
(0.296029 0.0372759 0)
(0.296064 0.0372731 0)
(0.2961 0.0372703 0)
(0.296137 0.0372676 0)
(0.296174 0.037265 0)
(0.296211 0.0372624 0)
(0.29625 0.03726 0)
(0.296289 0.0372577 0)
(0.29633 0.0372554 0)
(0.296371 0.0372533 0)
(0.296414 0.0372512 0)
(0.296457 0.0372493 0)
(0.296502 0.0372475 0)
(0.296548 0.0372458 0)
(0.296595 0.0372442 0)
(0.296644 0.0372428 0)
(0.296694 0.0372415 0)
(0.296746 0.0372404 0)
(0.296799 0.0372394 0)
(0.296853 0.0372385 0)
(0.29691 0.0372379 0)
(0.296968 0.0372374 0)
(0.297028 0.0372371 0)
(0.29709 0.037237 0)
(0.297153 0.037237 0)
(0.297219 0.0372373 0)
(0.297286 0.0372379 0)
(0.297356 0.0372386 0)
(0.297427 0.0372396 0)
(0.297501 0.0372409 0)
(0.297577 0.0372424 0)
(0.297655 0.0372442 0)
(0.297735 0.0372463 0)
(0.297817 0.0372487 0)
(0.297902 0.0372514 0)
(0.297989 0.0372545 0)
(0.298079 0.0372578 0)
(0.298171 0.0372615 0)
(0.298265 0.0372656 0)
(0.298362 0.0372701 0)
(0.298461 0.0372749 0)
(0.298562 0.0372802 0)
(0.298666 0.0372859 0)
(0.298773 0.0372919 0)
(0.298882 0.0372985 0)
(0.298993 0.0373055 0)
(0.299107 0.037313 0)
(0.299223 0.0373209 0)
(0.299342 0.0373294 0)
(0.299463 0.0373383 0)
(0.299587 0.0373478 0)
(0.299712 0.0373578 0)
(0.299841 0.0373684 0)
(0.299971 0.0373795 0)
(0.300104 0.0373912 0)
(0.300239 0.0374035 0)
(0.300376 0.0374163 0)
(0.300515 0.0374298 0)
(0.300656 0.0374439 0)
(0.3008 0.0374586 0)
(0.300945 0.0374739 0)
(0.301092 0.0374899 0)
(0.301241 0.0375065 0)
(0.301391 0.0375238 0)
(0.301543 0.0375417 0)
(0.301697 0.0375603 0)
(0.301852 0.0375796 0)
(0.302009 0.0375995 0)
(0.302166 0.0376201 0)
(0.302325 0.0376414 0)
(0.302485 0.0376633 0)
(0.302646 0.037686 0)
(0.302808 0.0377093 0)
(0.302971 0.0377333 0)
(0.303134 0.0377579 0)
(0.303298 0.0377833 0)
(0.303462 0.0378093 0)
(0.303627 0.0378359 0)
(0.303792 0.0378632 0)
(0.303957 0.0378912 0)
(0.304122 0.0379198 0)
(0.304286 0.037949 0)
(0.304451 0.0379789 0)
(0.304615 0.0380093 0)
(0.304778 0.0380404 0)
(0.304941 0.038072 0)
(0.305104 0.0381043 0)
(0.305265 0.0381371 0)
(0.305426 0.0381704 0)
(0.305585 0.0382043 0)
(0.305743 0.0382387 0)
(0.3059 0.0382736 0)
(0.306056 0.038309 0)
(0.30621 0.0383449 0)
(0.306362 0.0383812 0)
(0.306513 0.038418 0)
(0.306662 0.0384552 0)
(0.306809 0.0384928 0)
(0.306955 0.0385307 0)
(0.307098 0.0385691 0)
(0.307239 0.0386078 0)
(0.307377 0.0386468 0)
(0.307514 0.0386861 0)
(0.307648 0.0387257 0)
(0.307779 0.0387656 0)
(0.307908 0.0388057 0)
(0.308034 0.0388461 0)
(0.308158 0.0388866 0)
(0.308279 0.0389274 0)
(0.308397 0.0389683 0)
(0.308512 0.0390094 0)
(0.308625 0.0390506 0)
(0.308734 0.0390919 0)
(0.30884 0.0391333 0)
(0.308944 0.0391748 0)
(0.309044 0.0392164 0)
(0.309141 0.039258 0)
(0.309235 0.0392996 0)
(0.309326 0.0393412 0)
(0.309413 0.0393828 0)
(0.309497 0.0394243 0)
(0.309578 0.0394658 0)
(0.309656 0.0395073 0)
(0.30973 0.0395486 0)
(0.309802 0.0395899 0)
(0.309869 0.039631 0)
(0.309934 0.039672 0)
(0.309995 0.0397128 0)
(0.310052 0.0397535 0)
(0.310107 0.039794 0)
(0.310158 0.0398343 0)
(0.310205 0.0398744 0)
(0.310249 0.0399143 0)
(0.31029 0.039954 0)
(0.310328 0.0399934 0)
(0.310362 0.0400325 0)
(0.310393 0.0400714 0)
(0.31042 0.04011 0)
(0.310445 0.0401483 0)
(0.310466 0.0401862 0)
(0.310484 0.0402239 0)
(0.310498 0.0402612 0)
(0.31051 0.0402982 0)
(0.310518 0.0403348 0)
(0.310523 0.0403711 0)
(0.310525 0.040407 0)
(0.310524 0.0404425 0)
(0.31052 0.0404777 0)
(0.310513 0.0405124 0)
(0.310502 0.0405467 0)
(0.310489 0.0405806 0)
(0.310473 0.0406141 0)
(0.310455 0.0406471 0)
(0.310433 0.0406798 0)
(0.310409 0.0407119 0)
(0.310381 0.0407436 0)
(0.310352 0.0407749 0)
(0.310319 0.0408057 0)
(0.310284 0.040836 0)
(0.310247 0.0408659 0)
(0.310207 0.0408953 0)
(0.310164 0.0409242 0)
(0.310119 0.0409526 0)
(0.310072 0.0409805 0)
(0.310023 0.0410079 0)
(0.309971 0.0410349 0)
(0.309917 0.0410613 0)
(0.309861 0.0410872 0)
(0.309803 0.0411127 0)
(0.309744 0.0411376 0)
(0.309682 0.041162 0)
(0.309618 0.041186 0)
(0.309553 0.0412094 0)
(0.309486 0.0412323 0)
(0.309417 0.0412547 0)
(0.309346 0.0412766 0)
(0.309275 0.041298 0)
(0.309201 0.0413189 0)
(0.309126 0.0413393 0)
(0.30905 0.0413592 0)
(0.308973 0.0413786 0)
(0.308894 0.0413975 0)
(0.308814 0.041416 0)
(0.308733 0.0414339 0)
(0.308651 0.0414514 0)
(0.308569 0.0414684 0)
(0.308485 0.0414849 0)
(0.3084 0.041501 0)
(0.308315 0.0415166 0)
(0.308229 0.0415317 0)
(0.308142 0.0415464 0)
(0.308055 0.0415606 0)
(0.307967 0.0415744 0)
(0.307878 0.0415878 0)
(0.307789 0.0416008 0)
(0.3077 0.0416133 0)
(0.307611 0.0416254 0)
(0.307521 0.0416372 0)
(0.307431 0.0416485 0)
(0.307341 0.0416594 0)
(0.307251 0.04167 0)
(0.30716 0.0416801 0)
(0.30707 0.04169 0)
(0.30698 0.0416994 0)
(0.306889 0.0417085 0)
(0.306799 0.0417173 0)
(0.306709 0.0417257 0)
(0.30662 0.0417338 0)
(0.30653 0.0417416 0)
(0.306441 0.0417491 0)
(0.306352 0.0417562 0)
(0.306263 0.0417631 0)
(0.306175 0.0417697 0)
(0.306087 0.041776 0)
(0.306 0.0417821 0)
(0.305913 0.0417879 0)
(0.305827 0.0417934 0)
(0.305741 0.0417987 0)
(0.305656 0.0418038 0)
(0.305571 0.0418086 0)
(0.305487 0.0418132 0)
(0.305403 0.0418176 0)
(0.30532 0.0418218 0)
(0.305238 0.0418258 0)
(0.305156 0.0418296 0)
(0.305075 0.0418332 0)
(0.304995 0.0418366 0)
(0.304915 0.0418399 0)
(0.304837 0.041843 0)
(0.304758 0.041846 0)
(0.304681 0.0418488 0)
(0.304604 0.0418515 0)
(0.304528 0.0418541 0)
(0.304453 0.0418565 0)
(0.304378 0.0418588 0)
(0.304304 0.041861 0)
(0.30423 0.0418631 0)
(0.304158 0.0418652 0)
(0.304086 0.0418671 0)
(0.304014 0.041869 0)
(0.303944 0.0418708 0)
(0.303873 0.0418726 0)
(0.303804 0.0418743 0)
(0.303735 0.041876 0)
(0.303666 0.0418776 0)
(0.303598 0.0418793 0)
(0.30353 0.041881 0)
(0.303462 0.0418827 0)
(0.303395 0.0418845 0)
(0.303328 0.0418864 0)
(0.303261 0.0418884 0)
(0.303193 0.0418906 0)
(0.303126 0.041893 0)
(0.303058 0.0418957 0)
(0.302989 0.0418988 0)
(0.302919 0.0419024 0)
(0.302849 0.0419067 0)
(0.302776 0.0419118 0)
(0.302702 0.0419181 0)
(0.302624 0.0419259 0)
(0.302544 0.0419355 0)
(0.30246 0.0419475 0)
(0.302372 0.0419623 0)
(0.302281 0.0419801 0)
(0.30218 0.0420001 0)
(0.302064 0.0420172 0)
(0.296982 0.0410501 0)
(0.296693 0.0398974 0)
(0.296316 0.0390394 0)
(0.295947 0.0384449 0)
(0.295646 0.0380495 0)
(0.295419 0.0377918 0)
(0.295257 0.037625 0)
(0.295147 0.0375166 0)
(0.295077 0.0374454 0)
(0.295037 0.0373978 0)
(0.295018 0.0373653 0)
(0.295014 0.0373425 0)
(0.295022 0.037326 0)
(0.295038 0.0373137 0)
(0.29506 0.0373041 0)
(0.295085 0.0372963 0)
(0.295114 0.0372898 0)
(0.295145 0.0372842 0)
(0.295177 0.0372792 0)
(0.29521 0.0372746 0)
(0.295245 0.0372703 0)
(0.295279 0.0372662 0)
(0.295315 0.0372623 0)
(0.29535 0.0372584 0)
(0.295386 0.0372547 0)
(0.295423 0.037251 0)
(0.29546 0.0372474 0)
(0.295497 0.0372438 0)
(0.295534 0.0372402 0)
(0.295572 0.0372366 0)
(0.29561 0.0372331 0)
(0.295649 0.0372296 0)
(0.295688 0.037226 0)
(0.295728 0.0372225 0)
(0.295768 0.037219 0)
(0.29581 0.0372155 0)
(0.295852 0.037212 0)
(0.295895 0.0372085 0)
(0.295939 0.0372051 0)
(0.295984 0.0372016 0)
(0.29603 0.0371982 0)
(0.296077 0.0371948 0)
(0.296126 0.0371915 0)
(0.296176 0.0371881 0)
(0.296227 0.0371848 0)
(0.29628 0.0371816 0)
(0.296334 0.0371784 0)
(0.29639 0.0371752 0)
(0.296447 0.0371721 0)
(0.296506 0.0371691 0)
(0.296567 0.0371662 0)
(0.29663 0.0371633 0)
(0.296695 0.0371606 0)
(0.296762 0.0371579 0)
(0.296831 0.0371553 0)
(0.296902 0.0371529 0)
(0.296976 0.0371505 0)
(0.297051 0.0371484 0)
(0.297129 0.0371463 0)
(0.29721 0.0371444 0)
(0.297293 0.0371427 0)
(0.297378 0.0371412 0)
(0.297466 0.0371399 0)
(0.297557 0.0371387 0)
(0.29765 0.0371378 0)
(0.297746 0.0371372 0)
(0.297845 0.0371367 0)
(0.297947 0.0371366 0)
(0.298052 0.0371367 0)
(0.298159 0.0371371 0)
(0.29827 0.0371378 0)
(0.298383 0.0371389 0)
(0.2985 0.0371403 0)
(0.298619 0.037142 0)
(0.298742 0.0371442 0)
(0.298868 0.0371467 0)
(0.298997 0.0371496 0)
(0.299128 0.037153 0)