/*--------------------------------*- C++ -*----------------------------------*\
| =========                 |                                                 |
| \\      /  F ield         | OpenFOAM: The Open Source CFD Toolbox           |
|  \\    /   O peration     | Version:  2512                                  |
|   \\  /    A nd           | Website:  www.openfoam.com                      |
|    \\/     M anipulation  |                                                 |
\*---------------------------------------------------------------------------*/
FoamFile
{
    version     2.0;
    format      ascii;
    arch        "LSB;label=32;scalar=64";
    class       volScalarField;
    location    "2775";
    object      div(phi);
}
// * * * * * * * * * * * * * * * * * * * * * * * * * * * * * * * * * * * * * //

dimensions      [0 0 -1 0 0 0 0];

internalField   nonuniform List<scalar> 
66422
(
-2.35974e-07
-4.88512e-07
-5.55082e-07
-5.73323e-07
-5.89211e-07
-6.01251e-07
-6.10063e-07
-6.16863e-07
-6.22354e-07
-6.26899e-07
-6.3076e-07
-6.34105e-07
-6.37061e-07
-6.39708e-07
-6.42113e-07
-6.44318e-07
-6.46361e-07
-6.48264e-07
-6.50055e-07
-6.51745e-07
-6.53352e-07
-6.54885e-07
-6.56358e-07
-6.57774e-07
-6.59144e-07
-6.60472e-07
-6.61765e-07
-6.63026e-07
-6.64261e-07
-6.65472e-07
-6.66664e-07
-6.67837e-07
-6.68997e-07
-6.70143e-07
-6.7128e-07
-6.72407e-07
-6.73528e-07
-6.74643e-07
-6.75754e-07
-6.76862e-07
-6.77969e-07
-6.79073e-07
-6.80179e-07
-6.81283e-07
-6.82391e-07
-6.83499e-07
-6.84611e-07
-6.85724e-07
-6.86842e-07
-6.87962e-07
-6.89088e-07
-6.90216e-07
-6.91351e-07
-6.92488e-07
-6.93631e-07
-6.94777e-07
-6.9593e-07
-6.97085e-07
-6.98247e-07
-6.99411e-07
-7.00581e-07
-7.01754e-07
-7.02931e-07
-7.04111e-07
-7.05295e-07
-7.0648e-07
-7.07669e-07
-7.08857e-07
-7.10049e-07
-7.1124e-07
-7.12432e-07
-7.13622e-07
-7.14813e-07
-7.16e-07
-7.17187e-07
-7.18368e-07
-7.19547e-07
-7.20719e-07
-7.21887e-07
-7.23047e-07
-7.24202e-07
-7.25346e-07
-7.26482e-07
-7.27606e-07
-7.2872e-07
-7.29821e-07
-7.30909e-07
-7.31981e-07
-7.33039e-07
-7.34078e-07
-7.351e-07
-7.36101e-07
-7.37083e-07
-7.38041e-07
-7.38977e-07
-7.39887e-07
-7.40773e-07
-7.41629e-07
-7.42458e-07
-7.43255e-07
-7.44022e-07
-7.44755e-07
-7.45454e-07
-7.46116e-07
-7.46741e-07
-7.47328e-07
-7.47874e-07
-7.48379e-07
-7.48841e-07
-7.49259e-07
-7.49631e-07
-7.49956e-07
-7.50234e-07
-7.50461e-07
-7.50638e-07
-7.50764e-07
-7.50836e-07
-7.50854e-07
-7.50817e-07
-7.50724e-07
-7.50573e-07
-7.50365e-07
-7.50097e-07
-7.49769e-07
-7.4938e-07
-7.4893e-07
-7.48417e-07
-7.47842e-07
-7.47202e-07
-7.46499e-07
-7.4573e-07
-7.44897e-07
-7.43997e-07
-7.43032e-07
-7.42e-07
-7.40902e-07
-7.39735e-07
-7.38503e-07
-7.37202e-07
-7.35835e-07
-7.34399e-07
-7.32898e-07
-7.31327e-07
-7.2969e-07
-7.27985e-07
-7.26214e-07
-7.24374e-07
-7.2247e-07
-7.20497e-07
-7.18461e-07
-7.16356e-07
-7.14189e-07
-7.11954e-07
-7.09658e-07
-7.07294e-07
-7.0487e-07
-7.0238e-07
-6.99831e-07
-6.97216e-07
-6.94544e-07
-6.91808e-07
-6.89015e-07
-6.86158e-07
-6.83248e-07
-6.80275e-07
-6.77248e-07
-6.74161e-07
-6.71022e-07
-6.67824e-07
-6.64576e-07
-6.61269e-07
-6.57914e-07
-6.54501e-07
-6.51043e-07
-6.47528e-07
-6.43968e-07
-6.40354e-07
-6.36697e-07
-6.32986e-07
-6.29233e-07
-6.25429e-07
-6.21584e-07
-6.17688e-07
-6.13754e-07
-6.0977e-07
-6.05749e-07
-6.01679e-07
-5.97573e-07
-5.9342e-07
-5.89232e-07
-5.84998e-07
-5.80731e-07
-5.76419e-07
-5.72074e-07
-5.67685e-07
-5.63265e-07
-5.58803e-07
-5.5431e-07
-5.49775e-07
-5.45211e-07
-5.40606e-07
-5.35974e-07
-5.313e-07
-5.266e-07
-5.21861e-07
-5.17096e-07
-5.12291e-07
-5.07462e-07
-5.02595e-07
-4.97704e-07
-4.92775e-07
-4.87823e-07
-4.82835e-07
-4.77824e-07
-4.72776e-07
-4.67708e-07
-4.62604e-07
-4.57479e-07
-4.52319e-07
-4.47139e-07
-4.41925e-07
-4.36692e-07
-4.31425e-07
-4.2614e-07
-4.20822e-07
-4.15487e-07
-4.10119e-07
-4.04735e-07
-3.9932e-07
-3.93888e-07
-3.88426e-07
-3.8295e-07
-3.77444e-07
-3.71924e-07
-3.66375e-07
-3.60814e-07
-3.55226e-07
-3.49626e-07
-3.43999e-07
-3.38363e-07
-3.32701e-07
-3.27031e-07
-3.21337e-07
-3.15636e-07
-3.09913e-07
-3.04184e-07
-2.98435e-07
-2.92682e-07
-2.86909e-07
-2.81135e-07
-2.75344e-07
-2.69553e-07
-2.63747e-07
-2.57943e-07
-2.52126e-07
-2.46313e-07
-2.4049e-07
-2.34673e-07
-2.28848e-07
-2.23032e-07
-2.1721e-07
-2.114e-07
-2.05586e-07
-1.99787e-07
-1.93987e-07
-1.88204e-07
-1.82423e-07
-1.76662e-07
-1.70906e-07
-1.65172e-07
-1.59447e-07
-1.53747e-07
-1.48058e-07
-1.42398e-07
-1.36752e-07
-1.31138e-07
-1.25541e-07
-1.19979e-07
-1.14439e-07
-1.08936e-07
-1.03457e-07
-9.80204e-08
-9.26113e-08
-8.72471e-08
-8.19145e-08
-7.663e-08
-7.13808e-08
-6.6183e-08
-6.1024e-08
-5.59193e-08
-5.0857e-08
-4.58512e-08
-4.08902e-08
-3.59874e-08
-3.11269e-08
-2.63138e-08
-2.14597e-08
-1.64281e-08
-1.26571e-08
-1.17991e-08
-2.72313e-08
-4.09869e-08
-2.89019e-08
-2.41821e-08
-2.39365e-08
-2.4346e-08
-2.47665e-08
-2.52023e-08
-2.55696e-08
-2.58554e-08
-2.60613e-08
-2.62172e-08
-2.63325e-08
-2.64281e-08
-2.65053e-08
-2.65766e-08
-2.66386e-08
-2.66997e-08
-2.67549e-08
-2.68111e-08
-2.68626e-08
-2.69157e-08
-2.69648e-08
-2.70156e-08
-2.70628e-08
-2.71118e-08
-2.71574e-08
-2.72051e-08
-2.72498e-08
-2.72967e-08
-2.73408e-08
-2.73874e-08
-2.74314e-08
-2.7478e-08
-2.75223e-08
-2.75693e-08
-2.76142e-08
-2.76618e-08
-2.77074e-08
-2.77559e-08
-2.78023e-08
-2.78518e-08
-2.78991e-08
-2.79495e-08
-2.79978e-08
-2.80492e-08
-2.80985e-08
-2.81509e-08
-2.82013e-08
-2.82547e-08
-2.8306e-08
-2.83605e-08
-2.84128e-08
-2.84682e-08
-2.85214e-08
-2.85778e-08
-2.86319e-08
-2.86892e-08
-2.8744e-08
-2.8802e-08
-2.88576e-08
-2.89161e-08
-2.89722e-08
-2.90312e-08
-2.90874e-08
-2.91466e-08
-2.9203e-08
-2.92621e-08
-2.93183e-08
-2.93772e-08
-2.94331e-08
-2.94915e-08
-2.95468e-08
-2.96046e-08
-2.96593e-08
-2.97164e-08
-2.97703e-08
-2.98266e-08
-2.98798e-08
-2.99353e-08
-2.99878e-08
-3.00425e-08
-3.00943e-08
-3.01482e-08
-3.01993e-08
-3.02526e-08
-3.0303e-08
-3.03556e-08
-3.04054e-08
-3.04571e-08
-3.05062e-08
-3.0557e-08
-3.06053e-08
-3.06551e-08
-3.07023e-08
-3.07508e-08
-3.07968e-08
-3.08438e-08
-3.08882e-08
-3.09333e-08
-3.09758e-08
-3.10188e-08
-3.10591e-08
-3.10994e-08
-3.11371e-08
-3.11745e-08
-3.12093e-08
-3.12433e-08
-3.12748e-08
-3.13051e-08
-3.1333e-08
-3.13593e-08
-3.13832e-08
-3.14051e-08
-3.14248e-08
-3.14421e-08
-3.14572e-08
-3.14696e-08
-3.148e-08
-3.14872e-08
-3.14926e-08
-3.14945e-08
-3.14947e-08
-3.1491e-08
-3.14859e-08
-3.14765e-08
-3.14659e-08
-3.14506e-08
-3.14343e-08
-3.1413e-08
-3.1391e-08
-3.13635e-08
-3.13356e-08
-3.13019e-08
-3.12681e-08
-3.12281e-08
-3.11883e-08
-3.11419e-08
-3.1096e-08
-3.10433e-08
-3.09914e-08
-3.09322e-08
-3.08742e-08
-3.08086e-08
-3.07444e-08
-3.06725e-08
-3.06022e-08
-3.05238e-08
-3.04476e-08
-3.03629e-08
-3.02806e-08
-3.01895e-08
-3.01013e-08
-3.0004e-08
-2.99098e-08
-2.98063e-08
-2.97063e-08
-2.95967e-08
-2.94909e-08
-2.93753e-08
-2.92639e-08
-2.91425e-08
-2.90256e-08
-2.88986e-08
-2.87764e-08
-2.8644e-08
-2.85169e-08
-2.83793e-08
-2.82475e-08
-2.81051e-08
-2.79688e-08
-2.78219e-08
-2.76814e-08
-2.75303e-08
-2.7386e-08
-2.72309e-08
-2.7083e-08
-2.69242e-08
-2.67728e-08
-2.66104e-08
-2.64558e-08
-2.62899e-08
-2.6132e-08
-2.59627e-08
-2.58016e-08
-2.56289e-08
-2.54646e-08
-2.52885e-08
-2.5121e-08
-2.49416e-08
-2.47709e-08
-2.45881e-08
-2.44142e-08
-2.4228e-08
-2.4051e-08
-2.38615e-08
-2.36814e-08
-2.34888e-08
-2.33057e-08
-2.31099e-08
-2.29239e-08
-2.27251e-08
-2.25363e-08
-2.23347e-08
-2.21432e-08
-2.19388e-08
-2.17447e-08
-2.15376e-08
-2.1341e-08
-2.11314e-08
-2.09324e-08
-2.07202e-08
-2.05189e-08
-2.03043e-08
-2.01007e-08
-1.98837e-08
-1.96779e-08
-1.94585e-08
-1.92505e-08
-1.90289e-08
-1.88188e-08
-1.85949e-08
-1.83826e-08
-1.81565e-08
-1.79421e-08
-1.77138e-08
-1.74974e-08
-1.72669e-08
-1.70484e-08
-1.68158e-08
-1.65953e-08
-1.63606e-08
-1.61382e-08
-1.59014e-08
-1.5677e-08
-1.54383e-08
-1.5212e-08
-1.49714e-08
-1.47432e-08
-1.45007e-08
-1.42708e-08
-1.40265e-08
-1.3795e-08
-1.35489e-08
-1.33158e-08
-1.30682e-08
-1.28335e-08
-1.25844e-08
-1.23483e-08
-1.20978e-08
-1.18605e-08
-1.16088e-08
-1.13703e-08
-1.11175e-08
-1.0878e-08
-1.06242e-08
-1.03839e-08
-1.01294e-08
-9.88844e-09
-9.63335e-09
-9.3919e-09
-9.13646e-09
-8.89471e-09
-8.63912e-09
-8.3973e-09
-8.14179e-09
-7.90011e-09
-7.64496e-09
-7.40364e-09
-7.14907e-09
-6.90838e-09
-6.65468e-09
-6.4149e-09
-6.16234e-09
-5.92371e-09
-5.67261e-09
-5.43545e-09
-5.18613e-09
-4.95075e-09
-4.7036e-09
-4.4704e-09
-4.22587e-09
-3.99532e-09
-3.7539e-09
-3.52644e-09
-3.28855e-09
-3.06445e-09
-2.83044e-09
-2.61004e-09
-2.38057e-09
-2.16516e-09
-1.94195e-09
-1.7345e-09
-1.52492e-09
-1.34351e-09
-1.15308e-09
-9.20027e-10
-5.36201e-10
-2.06844e-09
-6.15319e-09
-1.38955e-09
1.72455e-08
2.77244e-08
3.00574e-08
3.11201e-08
3.17257e-08
3.19534e-08
3.20114e-08
3.20422e-08
3.20991e-08
3.21852e-08
3.22944e-08
3.24138e-08
3.2537e-08
3.2657e-08
3.27728e-08
3.28813e-08
3.2984e-08
3.30796e-08
3.31703e-08
3.32553e-08
3.33366e-08
3.34134e-08
3.34879e-08
3.3559e-08
3.36286e-08
3.36956e-08
3.37617e-08
3.38257e-08
3.38892e-08
3.39509e-08
3.40123e-08
3.4072e-08
3.41318e-08
3.419e-08
3.42484e-08
3.43054e-08
3.43627e-08
3.44187e-08
3.44752e-08
3.45305e-08
3.45864e-08
3.46413e-08
3.46968e-08
3.47514e-08
3.48067e-08
3.48612e-08
3.49166e-08
3.49712e-08
3.50266e-08
3.50813e-08
3.5137e-08
3.51919e-08
3.52479e-08
3.53031e-08
3.53594e-08
3.5415e-08
3.54717e-08
3.55278e-08
3.55849e-08
3.56416e-08
3.56993e-08
3.57566e-08
3.5815e-08
3.5873e-08
3.59323e-08
3.59911e-08
3.60513e-08
3.6111e-08
3.61721e-08
3.62328e-08
3.62948e-08
3.63564e-08
3.64193e-08
3.64816e-08
3.65451e-08
3.6608e-08
3.66718e-08
3.67349e-08
3.67988e-08
3.68617e-08
3.69251e-08
3.69873e-08
3.70498e-08
3.71108e-08
3.71719e-08
3.72313e-08
3.72905e-08
3.73478e-08
3.74046e-08
3.74594e-08
3.75134e-08
3.75653e-08
3.76162e-08
3.76647e-08
3.77122e-08
3.77573e-08
3.78011e-08
3.78424e-08
3.78824e-08
3.79197e-08
3.79556e-08
3.79889e-08
3.80206e-08
3.80497e-08
3.80771e-08
3.81018e-08
3.81247e-08
3.8145e-08
3.81632e-08
3.81789e-08
3.81923e-08
3.82032e-08
3.82117e-08
3.82176e-08
3.8221e-08
3.82218e-08
3.82199e-08
3.82155e-08
3.82081e-08
3.81981e-08
3.81851e-08
3.81695e-08
3.81507e-08
3.81293e-08
3.81045e-08
3.80772e-08
3.80463e-08
3.80129e-08
3.79757e-08
3.79361e-08
3.78926e-08
3.78468e-08
3.77969e-08
3.77446e-08
3.76882e-08
3.76296e-08
3.75667e-08
3.75016e-08
3.74321e-08
3.73606e-08
3.72845e-08
3.72065e-08
3.71239e-08
3.70395e-08
3.69504e-08
3.68596e-08
3.6764e-08
3.66668e-08
3.65649e-08
3.64615e-08
3.63533e-08
3.62437e-08
3.61293e-08
3.60137e-08
3.58932e-08
3.57717e-08
3.56452e-08
3.55179e-08
3.53855e-08
3.52524e-08
3.51143e-08
3.49755e-08
3.48315e-08
3.46871e-08
3.45373e-08
3.43871e-08
3.42315e-08
3.40755e-08
3.3914e-08
3.37521e-08
3.35846e-08
3.34168e-08
3.32433e-08
3.30695e-08
3.289e-08
3.27102e-08
3.25246e-08
3.2339e-08
3.21476e-08
3.19562e-08
3.17591e-08
3.15622e-08
3.13596e-08
3.11575e-08
3.09497e-08
3.07426e-08
3.053e-08
3.03182e-08
3.0101e-08
2.98848e-08
2.96633e-08
2.9443e-08
2.92174e-08
2.89931e-08
2.87636e-08
2.85356e-08
2.83023e-08
2.80706e-08
2.78337e-08
2.75984e-08
2.73579e-08
2.71191e-08
2.68751e-08
2.66329e-08
2.63855e-08
2.61399e-08
2.5889e-08
2.56401e-08
2.53859e-08
2.51337e-08
2.48762e-08
2.46208e-08
2.43601e-08
2.41015e-08
2.38377e-08
2.35761e-08
2.33092e-08
2.30446e-08
2.27747e-08
2.25073e-08
2.22346e-08
2.19643e-08
2.16888e-08
2.14159e-08
2.11377e-08
2.08622e-08
2.05816e-08
2.03036e-08
2.00205e-08
1.97402e-08
1.94547e-08
1.91722e-08
1.88846e-08
1.86e-08
1.83104e-08
1.80238e-08
1.77322e-08
1.74439e-08
1.71506e-08
1.68606e-08
1.65656e-08
1.62741e-08
1.59777e-08
1.56849e-08
1.53873e-08
1.50933e-08
1.47946e-08
1.44997e-08
1.42002e-08
1.39045e-08
1.36043e-08
1.33081e-08
1.30074e-08
1.2711e-08
1.24101e-08
1.21135e-08
1.18127e-08
1.15163e-08
1.12158e-08
1.09198e-08
1.06198e-08
1.03245e-08
1.00254e-08
9.73103e-09
9.43301e-09
9.1399e-09
8.84325e-09
8.55169e-09
8.25673e-09
7.967e-09
7.67404e-09
7.38642e-09
7.09579e-09
6.81061e-09
6.52261e-09
6.24018e-09
5.95517e-09
5.67583e-09
5.3941e-09
5.11811e-09
4.83994e-09
4.56759e-09
4.29329e-09
4.02494e-09
3.75507e-09
3.49139e-09
3.22672e-09
2.96854e-09
2.70972e-09
2.45716e-09
2.20372e-09
1.95622e-09
1.70102e-09
1.44368e-09
1.18649e-09
9.95207e-10
9.95861e-10
-7.30308e-10
-4.98944e-09
-6.6429e-09
4.46381e-09
8.00983e-09
8.31502e-09
8.87239e-09
9.16258e-09
9.15298e-09
9.0275e-09
8.90759e-09
8.82587e-09
8.78957e-09
8.7866e-09
8.80628e-09
8.8373e-09
8.87396e-09
8.91117e-09
8.9476e-09
8.98141e-09
9.01302e-09
9.04172e-09
9.06859e-09
9.09317e-09
9.11657e-09
9.13843e-09
9.1597e-09
9.17992e-09
9.19995e-09
9.21921e-09
9.23846e-09
9.25704e-09
9.27562e-09
9.29358e-09
9.31154e-09
9.32884e-09
9.34614e-09
9.36275e-09
9.37937e-09
9.39532e-09
9.41132e-09
9.42667e-09
9.4421e-09
9.45693e-09
9.4719e-09
9.48633e-09
9.50094e-09
9.51501e-09
9.52935e-09
9.54319e-09
9.55733e-09
9.57098e-09
9.58496e-09
9.5985e-09
9.61238e-09
9.62582e-09
9.63965e-09
9.65306e-09
9.66692e-09
9.68039e-09
9.69435e-09
9.708e-09
9.72218e-09
9.73615e-09
9.75074e-09
9.76516e-09
9.78033e-09
9.79543e-09
9.81133e-09
9.82726e-09
9.84408e-09
9.86098e-09
9.87884e-09
9.89681e-09
9.91572e-09
9.93474e-09
9.95466e-09
9.97463e-09
9.99543e-09
1.00162e-08
1.00376e-08
1.00588e-08
1.00805e-08
1.01018e-08
1.01235e-08
1.01446e-08
1.01658e-08
1.01862e-08
1.02065e-08
1.02259e-08
1.02451e-08
1.02631e-08
1.02807e-08
1.02972e-08
1.03131e-08
1.03278e-08
1.03418e-08
1.03546e-08
1.03667e-08
1.03776e-08
1.03878e-08
1.03967e-08
1.0405e-08
1.04121e-08
1.04186e-08
1.04239e-08
1.04286e-08
1.04323e-08
1.04354e-08
1.04375e-08
1.04391e-08
1.04397e-08
1.04398e-08
1.0439e-08
1.04377e-08
1.04356e-08
1.04329e-08
1.04294e-08
1.04254e-08
1.04206e-08
1.04152e-08
1.04092e-08
1.04024e-08
1.0395e-08
1.03869e-08
1.03782e-08
1.03686e-08
1.03586e-08
1.03476e-08
1.03362e-08
1.03238e-08
1.0311e-08
1.02972e-08
1.0283e-08
1.02677e-08
1.02521e-08
1.02353e-08
1.02183e-08
1.02001e-08
1.01816e-08
1.01619e-08
1.01421e-08
1.01209e-08
1.00997e-08
1.00771e-08
1.00546e-08
1.00305e-08
1.00066e-08
9.9812e-09
9.95597e-09
9.92921e-09
9.90269e-09
9.87464e-09
9.84689e-09
9.81759e-09
9.78869e-09
9.75818e-09
9.72814e-09
9.6965e-09
9.66538e-09
9.6326e-09
9.6004e-09
9.56647e-09
9.53314e-09
9.49802e-09
9.46349e-09
9.42706e-09
9.39118e-09
9.35327e-09
9.31586e-09
9.27627e-09
9.23713e-09
9.19565e-09
9.15454e-09
9.11096e-09
9.06771e-09
9.02186e-09
8.97633e-09
8.92811e-09
8.88018e-09
8.82956e-09
8.77932e-09
8.72635e-09
8.67382e-09
8.61866e-09
8.56403e-09
8.50684e-09
8.45033e-09
8.39134e-09
8.33317e-09
8.27261e-09
8.21301e-09
8.15108e-09
8.09025e-09
8.02716e-09
7.96523e-09
7.90106e-09
7.8382e-09
7.77309e-09
7.70929e-09
7.64327e-09
7.5786e-09
7.51171e-09
7.44614e-09
7.37833e-09
7.31188e-09
7.24313e-09
7.17579e-09
7.10609e-09
7.03779e-09
6.96716e-09
6.8979e-09
6.82627e-09
6.75607e-09
6.68347e-09
6.61231e-09
6.53873e-09
6.46666e-09
6.39215e-09
6.31914e-09
6.24373e-09
6.16985e-09
6.09355e-09
6.01882e-09
5.9417e-09
5.86618e-09
5.78825e-09
5.71196e-09
5.63328e-09
5.5563e-09
5.47691e-09
5.39926e-09
5.31921e-09
5.24095e-09
5.16029e-09
5.08145e-09
5.00022e-09
4.92086e-09
4.83914e-09
4.7593e-09
4.67711e-09
4.59685e-09
4.51422e-09
4.43361e-09
4.35063e-09
4.26967e-09
4.18639e-09
4.10518e-09
4.02163e-09
3.94021e-09
3.85646e-09
3.77489e-09
3.69101e-09
3.60933e-09
3.5254e-09
3.4437e-09
3.35973e-09
3.27809e-09
3.19419e-09
3.11263e-09
3.02885e-09
2.94748e-09
2.86392e-09
2.78277e-09
2.69948e-09
2.61863e-09
2.53569e-09
2.45525e-09
2.37273e-09
2.29272e-09
2.21073e-09
2.13128e-09
2.04989e-09
1.97105e-09
1.89032e-09
1.81222e-09
1.73227e-09
1.65499e-09
1.57592e-09
1.49953e-09
1.42149e-09
1.34609e-09
1.26907e-09
1.19469e-09
1.11876e-09
1.04547e-09
9.70817e-10
8.98951e-10
8.26056e-10
7.56279e-10
6.85831e-10
6.18579e-10
5.50409e-10
4.85257e-10
4.18117e-10
3.47714e-10
2.63555e-10
1.84467e-10
1.60716e-10
3.32005e-10
-1.16819e-09
-5.12972e-09
-6.93651e-09
1.26178e-09
3.79742e-09
4.24067e-09
4.80913e-09
5.13446e-09
5.15323e-09
5.06669e-09
4.963e-09
4.89024e-09
4.85211e-09
4.84483e-09
4.85643e-09
4.87916e-09
4.90601e-09
4.93385e-09
4.96004e-09
4.98413e-09
5.00546e-09
5.02452e-09
5.04124e-09
5.05641e-09
5.07006e-09
5.08288e-09
5.09486e-09
5.10651e-09
5.1177e-09
5.12883e-09
5.13965e-09
5.15045e-09
5.16095e-09
5.17141e-09
5.18148e-09
5.19145e-09
5.20097e-09
5.21034e-09
5.21922e-09
5.22795e-09
5.23618e-09
5.24427e-09
5.25191e-09
5.25941e-09
5.2665e-09
5.27351e-09
5.28014e-09
5.28674e-09
5.293e-09
5.29927e-09
5.30522e-09
5.31119e-09
5.3169e-09
5.32267e-09
5.32818e-09
5.33376e-09
5.33913e-09
5.34466e-09
5.34998e-09
5.35549e-09
5.36088e-09
5.36655e-09
5.37216e-09
5.37815e-09
5.38418e-09
5.39069e-09
5.39736e-09
5.40462e-09
5.41216e-09
5.42038e-09
5.42897e-09
5.43834e-09
5.44812e-09
5.45875e-09
5.46979e-09
5.48167e-09
5.49394e-09
5.50698e-09
5.52034e-09
5.53434e-09
5.54853e-09
5.5632e-09
5.57787e-09
5.59284e-09
5.60761e-09
5.62248e-09
5.63691e-09
5.65127e-09
5.66499e-09
5.67843e-09
5.69108e-09
5.70329e-09
5.71456e-09
5.72528e-09
5.73498e-09
5.74406e-09
5.75208e-09
5.75943e-09
5.76573e-09
5.77136e-09
5.77598e-09
5.77994e-09
5.78297e-09
5.7854e-09
5.78695e-09
5.78799e-09
5.78824e-09
5.78802e-09
5.78709e-09
5.78576e-09
5.78384e-09
5.78155e-09
5.77873e-09
5.77559e-09
5.77199e-09
5.76809e-09
5.7638e-09
5.75919e-09
5.75426e-09
5.74903e-09
5.74348e-09
5.73763e-09
5.73149e-09
5.72504e-09
5.71834e-09
5.7113e-09
5.70404e-09
5.69637e-09
5.68856e-09
5.68032e-09
5.67191e-09
5.66307e-09
5.65411e-09
5.64468e-09
5.63514e-09
5.62511e-09
5.61501e-09
5.60441e-09
5.59374e-09
5.58256e-09
5.57136e-09
5.55958e-09
5.54786e-09
5.53554e-09
5.5233e-09
5.51045e-09
5.49771e-09
5.48434e-09
5.47115e-09
5.45731e-09
5.44369e-09
5.42941e-09
5.4154e-09
5.40074e-09
5.38641e-09
5.37141e-09
5.35679e-09
5.34149e-09
5.32663e-09
5.31106e-09
5.29595e-09
5.28011e-09
5.26468e-09
5.2485e-09
5.23274e-09
5.21607e-09
5.19978e-09
5.18245e-09
5.16543e-09
5.14726e-09
5.12923e-09
5.10994e-09
5.09065e-09
5.06994e-09
5.04915e-09
5.0268e-09
5.00431e-09
4.98014e-09
4.95578e-09
4.92971e-09
4.90346e-09
4.87548e-09
4.84734e-09
4.81757e-09
4.78772e-09
4.75628e-09
4.72492e-09
4.69206e-09
4.65939e-09
4.62536e-09
4.59166e-09
4.55666e-09
4.52212e-09
4.48641e-09
4.45122e-09
4.41491e-09
4.37923e-09
4.34243e-09
4.30631e-09
4.26911e-09
4.2326e-09
4.19498e-09
4.15807e-09
4.12004e-09
4.08268e-09
4.04419e-09
4.00639e-09
3.96741e-09
3.9291e-09
3.88958e-09
3.85072e-09
3.81064e-09
3.77123e-09
3.73058e-09
3.69057e-09
3.64933e-09
3.60876e-09
3.56694e-09
3.52579e-09
3.48341e-09
3.44172e-09
3.39876e-09
3.35654e-09
3.31308e-09
3.27038e-09
3.22643e-09
3.18324e-09
3.13885e-09
3.09525e-09
3.05043e-09
3.00642e-09
2.9612e-09
2.91684e-09
2.87129e-09
2.8266e-09
2.78074e-09
2.73575e-09
2.6896e-09
2.64435e-09
2.59793e-09
2.55246e-09
2.50583e-09
2.46018e-09
2.41334e-09
2.36752e-09
2.32052e-09
2.27456e-09
2.22744e-09
2.18139e-09
2.13417e-09
2.08804e-09
2.04078e-09
1.99461e-09
1.9473e-09
1.90116e-09
1.85388e-09
1.80776e-09
1.76052e-09
1.71448e-09
1.66733e-09
1.62139e-09
1.57437e-09
1.52859e-09
1.48172e-09
1.43614e-09
1.38949e-09
1.34411e-09
1.29769e-09
1.25261e-09
1.20649e-09
1.16173e-09
1.11594e-09
1.07153e-09
1.02616e-09
9.82174e-10
9.37252e-10
8.93758e-10
8.4938e-10
8.06447e-10
7.62689e-10
7.20389e-10
6.77299e-10
6.35656e-10
5.93226e-10
5.52249e-10
5.10559e-10
4.70407e-10
4.29788e-10
3.90973e-10
3.52083e-10
3.15349e-10
2.78612e-10
2.43964e-10
2.08718e-10
1.75189e-10
1.3372e-10
8.21127e-11
3.14043e-11
3.68148e-11
2.24719e-10
-1.20869e-09
-4.93724e-09
-5.16174e-09
1.41501e-09
3.68816e-09
4.16184e-09
4.76424e-09
5.13349e-09
5.23701e-09
5.21559e-09
5.16575e-09
5.12705e-09
5.11398e-09
5.12225e-09
5.14545e-09
5.17559e-09
5.20819e-09
5.23961e-09
5.26859e-09
5.29417e-09
5.31657e-09
5.33587e-09
5.3527e-09
5.36747e-09
5.38075e-09
5.39293e-09
5.4044e-09
5.41539e-09
5.42617e-09
5.43677e-09
5.44728e-09
5.45772e-09
5.46811e-09
5.47829e-09
5.48834e-09
5.49815e-09
5.50773e-09
5.51698e-09
5.52597e-09
5.53459e-09
5.54292e-09
5.5509e-09
5.55862e-09
5.566e-09
5.57316e-09
5.58003e-09
5.5867e-09
5.59312e-09
5.5994e-09
5.60548e-09
5.61142e-09
5.6172e-09
5.62289e-09
5.62843e-09
5.63391e-09
5.63929e-09
5.64465e-09
5.64993e-09
5.65527e-09
5.66059e-09
5.66602e-09
5.67153e-09
5.67726e-09
5.68315e-09
5.68938e-09
5.69591e-09
5.70289e-09
5.71028e-09
5.71826e-09
5.72676e-09
5.73595e-09
5.74576e-09
5.75632e-09
5.76755e-09
5.77954e-09
5.79218e-09
5.80556e-09
5.81953e-09
5.83413e-09
5.84917e-09
5.8647e-09
5.88051e-09
5.89661e-09
5.91275e-09
5.92896e-09
5.94499e-09
5.96088e-09
5.97634e-09
5.99144e-09
6.00593e-09
6.01987e-09
6.033e-09
6.04545e-09
6.05698e-09
6.06773e-09
6.07748e-09
6.0864e-09
6.09428e-09
6.10133e-09
6.10738e-09
6.11262e-09
6.11686e-09
6.12039e-09
6.12302e-09
6.12496e-09
6.12609e-09
6.12664e-09
6.12646e-09
6.12577e-09
6.12444e-09
6.12266e-09
6.12034e-09
6.11764e-09
6.11442e-09
6.1109e-09
6.10693e-09
6.10265e-09
6.09799e-09
6.09303e-09
6.0877e-09
6.0821e-09
6.07619e-09
6.06997e-09
6.06345e-09
6.0566e-09
6.04948e-09
6.04206e-09
6.03434e-09
6.02629e-09
6.01799e-09
6.00931e-09
6.00041e-09
5.99115e-09
5.98164e-09
5.97176e-09
5.96165e-09
5.95117e-09
5.94048e-09
5.92939e-09
5.91811e-09
5.90643e-09
5.89459e-09
5.88231e-09
5.86992e-09
5.85711e-09
5.84417e-09
5.83083e-09
5.81738e-09
5.80355e-09
5.78964e-09
5.77533e-09
5.76099e-09
5.74628e-09
5.73159e-09
5.71652e-09
5.70151e-09
5.68614e-09
5.67086e-09
5.65522e-09
5.6397e-09
5.62381e-09
5.608e-09
5.59179e-09
5.57567e-09
5.55903e-09
5.54241e-09
5.5252e-09
5.50789e-09
5.48985e-09
5.4716e-09
5.45246e-09
5.43296e-09
5.41241e-09
5.39138e-09
5.36913e-09
5.34629e-09
5.32216e-09
5.29733e-09
5.27113e-09
5.24421e-09
5.21591e-09
5.1869e-09
5.15656e-09
5.12557e-09
5.09335e-09
5.0606e-09
5.02671e-09
4.99241e-09
4.95713e-09
4.92158e-09
4.88517e-09
4.84861e-09
4.81133e-09
4.77401e-09
4.73604e-09
4.6981e-09
4.65959e-09
4.62121e-09
4.58223e-09
4.5434e-09
4.50403e-09
4.46481e-09
4.42501e-09
4.38533e-09
4.3451e-09
4.30496e-09
4.26424e-09
4.2236e-09
4.18235e-09
4.14116e-09
4.09932e-09
4.05753e-09
4.01511e-09
3.97273e-09
3.92967e-09
3.88669e-09
3.84304e-09
3.79943e-09
3.75517e-09
3.71098e-09
3.66613e-09
3.62136e-09
3.57596e-09
3.53065e-09
3.4847e-09
3.4389e-09
3.39246e-09
3.34616e-09
3.29927e-09
3.25255e-09
3.20522e-09
3.15808e-09
3.11037e-09
3.06287e-09
3.0148e-09
2.96695e-09
2.91856e-09
2.87041e-09
2.82173e-09
2.77331e-09
2.72436e-09
2.67571e-09
2.62654e-09
2.57767e-09
2.5283e-09
2.47925e-09
2.42971e-09
2.38052e-09
2.33085e-09
2.28156e-09
2.23177e-09
2.1824e-09
2.13255e-09
2.08314e-09
2.03326e-09
1.98385e-09
1.93396e-09
1.88459e-09
1.83476e-09
1.78545e-09
1.7357e-09
1.68649e-09
1.63686e-09
1.58782e-09
1.53835e-09
1.48949e-09
1.44022e-09
1.39161e-09
1.34261e-09
1.29428e-09
1.24556e-09
1.19755e-09
1.14925e-09
1.10163e-09
1.05373e-09
1.0066e-09
9.5922e-10
9.12627e-10
8.65841e-10
8.19918e-10
7.73842e-10
7.28617e-10
6.83259e-10
6.38775e-10
5.9416e-10
5.50468e-10
5.06778e-10
4.64258e-10
4.22033e-10
3.81392e-10
3.4135e-10
3.03123e-10
2.65162e-10
2.28831e-10
1.91936e-10
1.50143e-10
9.58336e-11
4.41633e-11
3.93555e-11
2.11874e-10
-1.13901e-09
-4.61776e-09
-4.18722e-09
1.04274e-09
2.97193e-09
3.38442e-09
3.99215e-09
4.38022e-09
4.5391e-09
4.57077e-09
4.5618e-09
4.55346e-09
4.55958e-09
4.58136e-09
4.61229e-09
4.6478e-09
4.68291e-09
4.71584e-09
4.74477e-09
4.7698e-09
4.79078e-09
4.80842e-09
4.82313e-09
4.83567e-09
4.84654e-09
4.85637e-09
4.86546e-09
4.87422e-09
4.88277e-09
4.89132e-09
4.89989e-09
4.90851e-09
4.91714e-09
4.92574e-09
4.93424e-09
4.9426e-09
4.95074e-09
4.95867e-09
4.96631e-09
4.97365e-09
4.98068e-09
4.98741e-09
4.99383e-09
4.99998e-09
5.00584e-09
5.01143e-09
5.01683e-09
5.02197e-09
5.02693e-09
5.03171e-09
5.03632e-09
5.04078e-09
5.04512e-09
5.04933e-09
5.05344e-09
5.05748e-09
5.06145e-09
5.06542e-09
5.06937e-09
5.07337e-09
5.07745e-09
5.08169e-09
5.0861e-09
5.09078e-09
5.09576e-09
5.10115e-09
5.10698e-09
5.11335e-09
5.12029e-09
5.12789e-09
5.13619e-09
5.14524e-09
5.15504e-09
5.16567e-09
5.17705e-09
5.18923e-09
5.20213e-09
5.21577e-09
5.22999e-09
5.24483e-09
5.26009e-09
5.27575e-09
5.29161e-09
5.30765e-09
5.32368e-09
5.3396e-09
5.35525e-09
5.37061e-09
5.38545e-09
5.39974e-09
5.41334e-09
5.42623e-09
5.43825e-09
5.44946e-09
5.45968e-09
5.46899e-09
5.47731e-09
5.48471e-09
5.49105e-09
5.49654e-09
5.50102e-09
5.50466e-09
5.50737e-09
5.50935e-09
5.51048e-09
5.51097e-09
5.51071e-09
5.50987e-09
5.50839e-09
5.50646e-09
5.50396e-09
5.50108e-09
5.49771e-09
5.49402e-09
5.48991e-09
5.48553e-09
5.48078e-09
5.47581e-09
5.47047e-09
5.46494e-09
5.45911e-09
5.45306e-09
5.44673e-09
5.4402e-09
5.4334e-09
5.42639e-09
5.41911e-09
5.41162e-09
5.40389e-09
5.39593e-09
5.38775e-09
5.3793e-09
5.37065e-09
5.36176e-09
5.35265e-09
5.34329e-09
5.33373e-09
5.32392e-09
5.31393e-09
5.30366e-09
5.29326e-09
5.28257e-09
5.27175e-09
5.26066e-09
5.24946e-09
5.23796e-09
5.22639e-09
5.21456e-09
5.20267e-09
5.19053e-09
5.17835e-09
5.16594e-09
5.15354e-09
5.14093e-09
5.12836e-09
5.11561e-09
5.10293e-09
5.09005e-09
5.07731e-09
5.06436e-09
5.05151e-09
5.03843e-09
5.02544e-09
5.01217e-09
4.99889e-09
4.98524e-09
4.97152e-09
4.95725e-09
4.94276e-09
4.92762e-09
4.91207e-09
4.89569e-09
4.87876e-09
4.86084e-09
4.84221e-09
4.82244e-09
4.80187e-09
4.78006e-09
4.75738e-09
4.73344e-09
4.70862e-09
4.68252e-09
4.65563e-09
4.62755e-09
4.59872e-09
4.56886e-09
4.53839e-09
4.507e-09
4.47516e-09
4.44252e-09
4.40962e-09
4.37607e-09
4.34232e-09
4.30805e-09
4.27373e-09
4.23893e-09
4.20415e-09
4.16896e-09
4.1338e-09
4.09828e-09
4.0628e-09
4.02695e-09
3.99114e-09
3.95492e-09
3.91873e-09
3.88213e-09
3.8455e-09
3.80846e-09
3.77136e-09
3.73384e-09
3.69623e-09
3.65814e-09
3.62002e-09
3.58137e-09
3.54265e-09
3.50346e-09
3.46419e-09
3.42443e-09
3.38459e-09
3.34429e-09
3.30392e-09
3.26308e-09
3.22219e-09
3.18085e-09
3.13948e-09
3.09766e-09
3.05583e-09
3.01358e-09
2.97133e-09
2.92867e-09
2.88606e-09
2.84302e-09
2.80004e-09
2.75666e-09
2.71337e-09
2.66968e-09
2.6261e-09
2.58214e-09
2.53829e-09
2.49409e-09
2.45001e-09
2.40557e-09
2.3613e-09
2.31667e-09
2.27221e-09
2.22742e-09
2.18281e-09
2.13787e-09
2.09316e-09
2.04812e-09
2.00329e-09
1.95817e-09
1.91329e-09
1.86811e-09
1.82322e-09
1.77801e-09
1.73311e-09
1.68792e-09
1.64307e-09
1.59794e-09
1.55314e-09
1.50808e-09
1.46339e-09
1.41844e-09
1.3739e-09
1.32911e-09
1.28475e-09
1.24015e-09
1.19602e-09
1.15165e-09
1.10779e-09
1.06372e-09
1.02018e-09
9.7647e-10
9.33314e-10
8.90032e-10
8.4735e-10
8.0459e-10
7.6247e-10
7.20342e-10
6.789e-10
6.37448e-10
5.96709e-10
5.55972e-10
5.15937e-10
4.75957e-10
4.36827e-10
3.97937e-10
3.60256e-10
3.23185e-10
2.87711e-10
2.52924e-10
2.19675e-10
1.86651e-10
1.54969e-10
1.16659e-10
6.76827e-11
1.99514e-11
2.10359e-11
1.76116e-10
-1.10942e-09
-4.17837e-09
-3.6418e-09
6.9438e-10
2.22101e-09
2.63586e-09
3.20134e-09
3.60339e-09
3.80101e-09
3.87599e-09
3.90415e-09
3.92146e-09
3.94647e-09
3.97931e-09
4.01812e-09
4.05752e-09
4.09531e-09
4.12883e-09
4.15786e-09
4.18182e-09
4.20146e-09
4.21709e-09
4.22971e-09
4.23982e-09
4.2483e-09
4.25559e-09
4.26226e-09
4.26859e-09
4.27487e-09
4.28122e-09
4.28773e-09
4.29439e-09
4.30116e-09
4.30801e-09
4.31484e-09
4.32162e-09
4.32825e-09
4.33469e-09
4.34087e-09
4.34681e-09
4.35244e-09
4.35781e-09
4.36283e-09
4.36763e-09
4.37211e-09
4.37635e-09
4.38033e-09
4.3841e-09
4.38765e-09
4.39102e-09
4.39422e-09
4.39726e-09
4.40014e-09
4.40291e-09
4.40557e-09
4.40814e-09
4.41067e-09
4.41317e-09
4.41567e-09
4.41823e-09
4.42088e-09
4.42371e-09
4.42673e-09
4.43007e-09
4.43374e-09
4.43786e-09
4.44246e-09
4.44765e-09
4.45351e-09
4.46006e-09
4.46737e-09
4.47551e-09
4.48447e-09
4.49431e-09
4.50499e-09
4.51653e-09
4.52884e-09
4.54194e-09
4.5557e-09
4.57008e-09
4.58494e-09
4.60018e-09
4.61573e-09
4.63139e-09
4.64707e-09
4.6626e-09
4.67793e-09
4.69286e-09
4.7073e-09
4.72114e-09
4.73427e-09
4.74661e-09
4.75813e-09
4.76869e-09
4.77831e-09
4.78693e-09
4.79457e-09
4.80116e-09
4.80681e-09
4.81142e-09
4.81515e-09
4.81792e-09
4.81984e-09
4.8209e-09
4.82126e-09
4.82083e-09
4.8198e-09
4.8181e-09
4.8159e-09
4.81314e-09
4.80996e-09
4.80633e-09
4.80236e-09
4.79802e-09
4.7934e-09
4.78844e-09
4.78329e-09
4.77784e-09
4.77222e-09
4.76633e-09
4.76031e-09
4.75407e-09
4.74767e-09
4.74104e-09
4.73431e-09
4.72736e-09
4.72027e-09
4.713e-09
4.70558e-09
4.698e-09
4.69027e-09
4.68236e-09
4.67432e-09
4.66612e-09
4.65775e-09
4.64926e-09
4.64063e-09
4.63182e-09
4.62291e-09
4.61385e-09
4.60466e-09
4.59536e-09
4.58591e-09
4.57639e-09
4.56672e-09
4.55699e-09
4.54714e-09
4.53724e-09
4.52724e-09
4.51721e-09
4.5071e-09
4.49702e-09
4.48684e-09
4.47676e-09
4.46661e-09
4.45657e-09
4.44649e-09
4.43653e-09
4.42655e-09
4.41672e-09
4.40682e-09
4.39702e-09
4.38715e-09
4.3773e-09
4.36727e-09
4.35719e-09
4.34681e-09
4.33622e-09
4.32517e-09
4.31375e-09
4.30168e-09
4.28909e-09
4.27564e-09
4.26148e-09
4.24634e-09
4.23035e-09
4.21323e-09
4.19516e-09
4.1759e-09
4.15568e-09
4.13425e-09
4.11185e-09
4.08834e-09
4.06392e-09
4.03852e-09
4.01232e-09
3.98527e-09
3.9576e-09
3.9292e-09
3.90037e-09
3.87095e-09
3.84126e-09
3.81112e-09
3.78078e-09
3.75014e-09
3.71937e-09
3.68836e-09
3.6573e-09
3.62602e-09
3.5947e-09
3.56316e-09
3.53163e-09
3.49985e-09
3.46801e-09
3.43593e-09
3.40379e-09
3.37136e-09
3.33884e-09
3.306e-09
3.27304e-09
3.23977e-09
3.20633e-09
3.17256e-09
3.13864e-09
3.10436e-09
3.06991e-09
3.03515e-09
3.00017e-09
2.9649e-09
2.92945e-09
2.89368e-09
2.85775e-09
2.8215e-09
2.78512e-09
2.74845e-09
2.71163e-09
2.67456e-09
2.63737e-09
2.59991e-09
2.56235e-09
2.52456e-09
2.48666e-09
2.44855e-09
2.41037e-09
2.37197e-09
2.33351e-09
2.29487e-09
2.25618e-09
2.21728e-09
2.17839e-09
2.13929e-09
2.1002e-09
2.06092e-09
2.02166e-09
1.98221e-09
1.94281e-09
1.90324e-09
1.86371e-09
1.82402e-09
1.78441e-09
1.74463e-09
1.70495e-09
1.6651e-09
1.62537e-09
1.58549e-09
1.54573e-09
1.50584e-09
1.46611e-09
1.42624e-09
1.38653e-09
1.34671e-09
1.30707e-09
1.26732e-09
1.22779e-09
1.18813e-09
1.14872e-09
1.10922e-09
1.06997e-09
1.03064e-09
9.9161e-10
9.52495e-10
9.13724e-10
8.74889e-10
8.36416e-10
7.9793e-10
7.59855e-10
7.21797e-10
6.84185e-10
6.4665e-10
6.09649e-10
5.72734e-10
5.36395e-10
5.00143e-10
4.64456e-10
4.28873e-10
3.93905e-10
3.59136e-10
3.25201e-10
2.91728e-10
2.59561e-10
2.28122e-10
1.9822e-10
1.68847e-10
1.40953e-10
1.12954e-10
8.05125e-11