/*--------------------------------*- C++ -*----------------------------------*\
| =========                 |                                                 |
| \\      /  F ield         | OpenFOAM: The Open Source CFD Toolbox           |
|  \\    /   O peration     | Version:  2512                                  |
|   \\  /    A nd           | Website:  www.openfoam.com                      |
|    \\/     M anipulation  |                                                 |
\*---------------------------------------------------------------------------*/
FoamFile
{
    version     2.0;
    format      ascii;
    arch        "LSB;label=32;scalar=64";
    class       volVectorField;
    location    "2775";
    object      momentError;
}
// * * * * * * * * * * * * * * * * * * * * * * * * * * * * * * * * * * * * * //

dimensions      [0 1 -2 0 0 0 0];

internalField   nonuniform List<vector> 
66422
(
(-1.53746e-08 1.32587e-07 0)
(1.04174e-08 2.52002e-07 0)
(5.23054e-08 2.82629e-07 0)
(6.06274e-08 2.90625e-07 0)
(5.9913e-08 2.97559e-07 0)
(5.79155e-08 3.03099e-07 0)
(5.58542e-08 3.07297e-07 0)
(5.40092e-08 3.10615e-07 0)
(5.24531e-08 3.13328e-07 0)
(5.11728e-08 3.15604e-07 0)
(5.01344e-08 3.17554e-07 0)
(4.93045e-08 3.19258e-07 0)
(4.86538e-08 3.20769e-07 0)
(4.81581e-08 3.22127e-07 0)
(4.77974e-08 3.23362e-07 0)
(4.75555e-08 3.24495e-07 0)
(4.7419e-08 3.25544e-07 0)
(4.73771e-08 3.26523e-07 0)
(4.74205e-08 3.27443e-07 0)
(4.75421e-08 3.28312e-07 0)
(4.77352e-08 3.29137e-07 0)
(4.79947e-08 3.29925e-07 0)
(4.83161e-08 3.30681e-07 0)
(4.86958e-08 3.3141e-07 0)
(4.91301e-08 3.32114e-07 0)
(4.96163e-08 3.32797e-07 0)
(5.01521e-08 3.33462e-07 0)
(5.0735e-08 3.34111e-07 0)
(5.13634e-08 3.34747e-07 0)
(5.20354e-08 3.35371e-07 0)
(5.27494e-08 3.35985e-07 0)
(5.35044e-08 3.36591e-07 0)
(5.4299e-08 3.37189e-07 0)
(5.51322e-08 3.37781e-07 0)
(5.60028e-08 3.38368e-07 0)
(5.69103e-08 3.38951e-07 0)
(5.78536e-08 3.39531e-07 0)
(5.88321e-08 3.40108e-07 0)
(5.98451e-08 3.40683e-07 0)
(6.08918e-08 3.41257e-07 0)
(6.19717e-08 3.4183e-07 0)
(6.30843e-08 3.42404e-07 0)
(6.4229e-08 3.42977e-07 0)
(6.54052e-08 3.43551e-07 0)
(6.66124e-08 3.44126e-07 0)
(6.78502e-08 3.44702e-07 0)
(6.9118e-08 3.4528e-07 0)
(7.04152e-08 3.4586e-07 0)
(7.17416e-08 3.46442e-07 0)
(7.30964e-08 3.47026e-07 0)
(7.44793e-08 3.47612e-07 0)
(7.58897e-08 3.48201e-07 0)
(7.7327e-08 3.48792e-07 0)
(7.87908e-08 3.49386e-07 0)
(8.02805e-08 3.49983e-07 0)
(8.17955e-08 3.50582e-07 0)
(8.33353e-08 3.51184e-07 0)
(8.48993e-08 3.51789e-07 0)
(8.64868e-08 3.52396e-07 0)
(8.80972e-08 3.53006e-07 0)
(8.97298e-08 3.53619e-07 0)
(9.1384e-08 3.54233e-07 0)
(9.3059e-08 3.5485e-07 0)
(9.47543e-08 3.5547e-07 0)
(9.64689e-08 3.56091e-07 0)
(9.82022e-08 3.56713e-07 0)
(9.99533e-08 3.57337e-07 0)
(1.01722e-07 3.57963e-07 0)
(1.03506e-07 3.58589e-07 0)
(1.05306e-07 3.59217e-07 0)
(1.0712e-07 3.59844e-07 0)
(1.08948e-07 3.60472e-07 0)
(1.10788e-07 3.611e-07 0)
(1.1264e-07 3.61727e-07 0)
(1.14503e-07 3.62353e-07 0)
(1.16376e-07 3.62978e-07 0)
(1.18258e-07 3.63601e-07 0)
(1.20147e-07 3.64222e-07 0)
(1.22043e-07 3.6484e-07 0)
(1.23945e-07 3.65456e-07 0)
(1.25851e-07 3.66067e-07 0)
(1.27761e-07 3.66675e-07 0)
(1.29674e-07 3.67279e-07 0)
(1.31588e-07 3.67877e-07 0)
(1.33503e-07 3.68469e-07 0)
(1.35417e-07 3.69056e-07 0)
(1.37329e-07 3.69636e-07 0)
(1.39239e-07 3.70208e-07 0)
(1.41144e-07 3.70772e-07 0)
(1.43045e-07 3.71328e-07 0)
(1.4494e-07 3.71874e-07 0)
(1.46828e-07 3.72411e-07 0)
(1.48708e-07 3.72937e-07 0)
(1.50578e-07 3.73452e-07 0)
(1.52439e-07 3.73955e-07 0)
(1.5429e-07 3.74446e-07 0)
(1.56128e-07 3.74923e-07 0)
(1.57954e-07 3.75386e-07 0)
(1.59766e-07 3.75835e-07 1.39236e-33)
(1.61564e-07 3.76268e-07 -1.31266e-33)
(1.63346e-07 3.76685e-07 -1.53128e-33)
(1.65113e-07 3.77085e-07 1.45353e-33)
(1.66864e-07 3.77468e-07 -1.93851e-36)
(1.68597e-07 3.77833e-07 0)
(1.70312e-07 3.78178e-07 0)
(1.72009e-07 3.78504e-07 0)
(1.73688e-07 3.7881e-07 0)
(1.75347e-07 3.79094e-07 0)
(1.76986e-07 3.79357e-07 0)
(1.78605e-07 3.79598e-07 0)
(1.80204e-07 3.79815e-07 0)
(1.81782e-07 3.80008e-07 0)
(1.83339e-07 3.80177e-07 0)
(1.84875e-07 3.80321e-07 0)
(1.86391e-07 3.8044e-07 0)
(1.87885e-07 3.80532e-07 0)
(1.89358e-07 3.80597e-07 0)
(1.9081e-07 3.80634e-07 0)
(1.92241e-07 3.80644e-07 0)
(1.93652e-07 3.80625e-07 0)
(1.95042e-07 3.80577e-07 0)
(1.96412e-07 3.80499e-07 0)
(1.97762e-07 3.80392e-07 0)
(1.99092e-07 3.80253e-07 0)
(2.00403e-07 3.80084e-07 0)
(2.01696e-07 3.79884e-07 0)
(2.0297e-07 3.79652e-07 0)
(2.04227e-07 3.79387e-07 0)
(2.05467e-07 3.79091e-07 0)
(2.0669e-07 3.78761e-07 0)
(2.07897e-07 3.78399e-07 0)
(2.09089e-07 3.78003e-07 0)
(2.10266e-07 3.77574e-07 0)
(2.11429e-07 3.77111e-07 0)
(2.12579e-07 3.76614e-07 0)
(2.13717e-07 3.76084e-07 0)
(2.14842e-07 3.75518e-07 0)
(2.15957e-07 3.74919e-07 0)
(2.17062e-07 3.74285e-07 0)
(2.18157e-07 3.73617e-07 0)
(2.19243e-07 3.72914e-07 0)
(2.20321e-07 3.72177e-07 0)
(2.21392e-07 3.71405e-07 0)
(2.22456e-07 3.70599e-07 0)
(2.23515e-07 3.69758e-07 0)
(2.24568e-07 3.68883e-07 0)
(2.25617e-07 3.67974e-07 0)
(2.26663e-07 3.6703e-07 0)
(2.27705e-07 3.66053e-07 0)
(2.28745e-07 3.65041e-07 0)
(2.29784e-07 3.63996e-07 0)
(2.30821e-07 3.62918e-07 0)
(2.31858e-07 3.61806e-07 0)
(2.32894e-07 3.6066e-07 0)
(2.33932e-07 3.59482e-07 0)
(2.3497e-07 3.58272e-07 0)
(2.3601e-07 3.57029e-07 0)
(2.37051e-07 3.55753e-07 0)
(2.38095e-07 3.54446e-07 0)
(2.39142e-07 3.53108e-07 0)
(2.40191e-07 3.51738e-07 0)
(2.41243e-07 3.50337e-07 0)
(2.42299e-07 3.48905e-07 0)
(2.43358e-07 3.47443e-07 0)
(2.44421e-07 3.45951e-07 0)
(2.45488e-07 3.44429e-07 0)
(2.46558e-07 3.42878e-07 0)
(2.47633e-07 3.41298e-07 0)
(2.48711e-07 3.3969e-07 0)
(2.49792e-07 3.38053e-07 0)
(2.50878e-07 3.36388e-07 0)
(2.51966e-07 3.34696e-07 0)
(2.53058e-07 3.32976e-07 0)
(2.54152e-07 3.3123e-07 0)
(2.5525e-07 3.29457e-07 0)
(2.56349e-07 3.27658e-07 0)
(2.5745e-07 3.25833e-07 0)
(2.58553e-07 3.23983e-07 0)
(2.59656e-07 3.22107e-07 0)
(2.6076e-07 3.20207e-07 0)
(2.61864e-07 3.18283e-07 0)
(2.62967e-07 3.16335e-07 0)
(2.64069e-07 3.14363e-07 0)
(2.65168e-07 3.12368e-07 0)
(2.66265e-07 3.1035e-07 0)
(2.67359e-07 3.08309e-07 0)
(2.68448e-07 3.06246e-07 0)
(2.69532e-07 3.04161e-07 0)
(2.70611e-07 3.02055e-07 0)
(2.71682e-07 2.99927e-07 0)
(2.72746e-07 2.97779e-07 0)
(2.73801e-07 2.9561e-07 0)
(2.74847e-07 2.9342e-07 0)
(2.75883e-07 2.9121e-07 0)
(2.76907e-07 2.88981e-07 0)
(2.77919e-07 2.86732e-07 0)
(2.78917e-07 2.84464e-07 0)
(2.79902e-07 2.82177e-07 0)
(2.8087e-07 2.79871e-07 0)
(2.81822e-07 2.77547e-07 0)
(2.82757e-07 2.75205e-07 0)
(2.83673e-07 2.72845e-07 0)
(2.8457e-07 2.70468e-07 0)
(2.85446e-07 2.68072e-07 0)
(2.863e-07 2.6566e-07 0)
(2.87132e-07 2.63231e-07 0)
(2.8794e-07 2.60785e-07 0)
(2.88723e-07 2.58323e-07 0)
(2.89481e-07 2.55844e-07 0)
(2.90211e-07 2.53349e-07 0)
(2.90915e-07 2.50838e-07 0)
(2.91589e-07 2.48312e-07 0)
(2.92234e-07 2.4577e-07 0)
(2.92849e-07 2.43213e-07 0)
(2.93432e-07 2.40641e-07 0)
(2.93984e-07 2.38054e-07 0)
(2.94502e-07 2.35452e-07 0)
(2.94987e-07 2.32836e-07 0)
(2.95438e-07 2.30205e-07 0)
(2.95854e-07 2.2756e-07 0)
(2.96234e-07 2.24902e-07 0)
(2.96578e-07 2.2223e-07 0)
(2.96886e-07 2.19544e-07 0)
(2.97157e-07 2.16845e-07 0)
(2.9739e-07 2.14133e-07 0)
(2.97585e-07 2.11408e-07 0)
(2.97742e-07 2.0867e-07 0)
(2.97861e-07 2.0592e-07 0)
(2.97942e-07 2.03158e-07 0)
(2.97984e-07 2.00384e-07 0)
(2.97987e-07 1.97598e-07 0)
(2.97952e-07 1.94801e-07 0)
(2.97879e-07 1.91993e-07 0)
(2.97767e-07 1.89174e-07 0)
(2.97618e-07 1.86344e-07 0)
(2.97431e-07 1.83504e-07 0)
(2.97207e-07 1.80654e-07 0)
(2.96947e-07 1.77794e-07 0)
(2.9665e-07 1.74925e-07 0)
(2.96318e-07 1.72047e-07 0)
(2.95952e-07 1.69161e-07 0)
(2.95551e-07 1.66266e-07 0)
(2.95118e-07 1.63363e-07 0)
(2.94652e-07 1.60453e-07 0)
(2.94156e-07 1.57535e-07 0)
(2.93629e-07 1.54611e-07 0)
(2.93074e-07 1.51681e-07 0)
(2.92492e-07 1.48745e-07 0)
(2.91883e-07 1.45804e-07 0)
(2.9125e-07 1.42858e-07 0)
(2.90593e-07 1.39907e-07 0)
(2.89914e-07 1.36953e-07 0)
(2.89215e-07 1.33996e-07 0)
(2.88497e-07 1.31036e-07 0)
(2.87763e-07 1.28073e-07 0)
(2.87013e-07 1.25109e-07 0)
(2.8625e-07 1.22145e-07 0)
(2.85475e-07 1.19179e-07 0)
(2.8469e-07 1.16214e-07 0)
(2.83898e-07 1.1325e-07 0)
(2.83099e-07 1.10287e-07 0)
(2.82296e-07 1.07327e-07 0)
(2.81492e-07 1.04369e-07 0)
(2.80687e-07 1.01415e-07 0)
(2.79884e-07 9.84645e-08 0)
(2.79085e-07 9.55192e-08 0)
(2.78292e-07 9.25794e-08 0)
(2.77507e-07 8.9646e-08 0)
(2.76732e-07 8.67196e-08 0)
(2.75969e-07 8.38009e-08 0)
(2.75219e-07 8.08907e-08 0)
(2.74485e-07 7.79898e-08 0)
(2.73769e-07 7.50989e-08 0)
(2.73071e-07 7.22188e-08 0)
(2.72395e-07 6.93503e-08 0)
(2.71741e-07 6.64941e-08 0)
(2.71111e-07 6.3651e-08 0)
(2.70506e-07 6.08219e-08 0)
(2.69927e-07 5.80075e-08 0)
(2.69376e-07 5.52087e-08 0)
(2.68852e-07 5.24263e-08 0)
(2.68357e-07 4.9661e-08 0)
(2.67891e-07 4.69137e-08 0)
(2.67452e-07 4.41852e-08 0)
(2.67041e-07 4.14763e-08 0)
(2.66655e-07 3.87877e-08 0)
(2.66292e-07 3.61202e-08 0)
(2.65949e-07 3.34745e-08 0)
(2.6562e-07 3.0851e-08 0)
(2.65299e-07 2.82503e-08 0)
(2.64977e-07 2.56726e-08 0)
(2.64642e-07 2.31176e-08 0)
(2.64276e-07 2.05847e-08 0)
(2.63855e-07 1.8072e-08 0)
(2.63341e-07 1.55764e-08 0)
(2.62695e-07 1.30936e-08 0)
(2.61898e-07 1.06042e-08 0)
(2.60536e-07 8.04542e-09 0)
(2.56925e-07 5.85506e-09 0)
(2.0319e-07 3.55512e-09 0)
(3.0687e-09 1.21354e-07 0)
(6.19909e-08 2.52673e-07 0)
(9.52152e-08 3.10977e-07 0)
(1.09034e-07 3.35088e-07 0)
(1.14348e-07 3.47248e-07 0)
(1.15887e-07 3.54354e-07 0)
(1.15639e-07 3.58986e-07 0)
(1.14631e-07 3.6232e-07 0)
(1.13388e-07 3.64911e-07 0)
(1.1216e-07 3.67036e-07 0)
(1.11067e-07 3.68846e-07 0)
(1.10158e-07 3.70429e-07 0)
(1.09453e-07 3.71843e-07 0)
(1.08952e-07 3.73124e-07 0)
(1.08648e-07 3.74299e-07 0)
(1.08533e-07 3.75387e-07 0)
(1.08593e-07 3.76403e-07 0)
(1.0882e-07 3.77358e-07 0)
(1.09203e-07 3.78261e-07 0)
(1.09733e-07 3.79119e-07 0)
(1.10401e-07 3.7994e-07 0)
(1.112e-07 3.80727e-07 0)
(1.12124e-07 3.81485e-07 0)
(1.13167e-07 3.82218e-07 0)
(1.14324e-07 3.82929e-07 0)
(1.15591e-07 3.83621e-07 0)
(1.16963e-07 3.84297e-07 0)
(1.18437e-07 3.84959e-07 0)
(1.20009e-07 3.85608e-07 0)
(1.21677e-07 3.86247e-07 0)
(1.23438e-07 3.86876e-07 0)
(1.2529e-07 3.87498e-07 0)
(1.27231e-07 3.88114e-07 0)
(1.29259e-07 3.88725e-07 0)
(1.31371e-07 3.89331e-07 0)
(1.33567e-07 3.89934e-07 0)
(1.35844e-07 3.90534e-07 0)
(1.38203e-07 3.91133e-07 0)
(1.4064e-07 3.91731e-07 0)
(1.43155e-07 3.92328e-07 0)
(1.45747e-07 3.92925e-07 0)
(1.48415e-07 3.93524e-07 0)
(1.51157e-07 3.94123e-07 0)
(1.53972e-07 3.94724e-07 0)
(1.5686e-07 3.95326e-07 0)
(1.59819e-07 3.95932e-07 0)
(1.62849e-07 3.96539e-07 0)
(1.65948e-07 3.9715e-07 0)
(1.69115e-07 3.97763e-07 0)
(1.7235e-07 3.9838e-07 0)
(1.75651e-07 3.99e-07 0)
(1.79016e-07 3.99624e-07 0)
(1.82446e-07 4.00252e-07 0)
(1.85938e-07 4.00884e-07 0)
(1.89492e-07 4.01519e-07 0)
(1.93106e-07 4.02159e-07 0)
(1.96779e-07 4.02802e-07 0)
(2.0051e-07 4.0345e-07 0)
(2.04297e-07 4.04101e-07 0)
(2.08139e-07 4.04756e-07 0)
(2.12035e-07 4.05416e-07 0)
(2.15982e-07 4.06079e-07 0)
(2.1998e-07 4.06745e-07 0)
(2.24026e-07 4.07415e-07 0)
(2.28119e-07 4.08089e-07 0)
(2.32258e-07 4.08765e-07 0)
(2.3644e-07 4.09445e-07 0)
(2.40663e-07 4.10127e-07 0)
(2.44927e-07 4.10812e-07 0)
(2.49228e-07 4.11499e-07 0)
(2.53564e-07 4.12188e-07 0)
(2.57935e-07 4.12878e-07 0)
(2.62337e-07 4.13569e-07 0)
(2.66768e-07 4.14262e-07 0)
(2.71227e-07 4.14954e-07 0)
(2.7571e-07 4.15647e-07 0)
(2.80217e-07 4.16339e-07 0)
(2.84743e-07 4.17031e-07 0)
(2.89288e-07 4.17721e-07 0)
(2.93848e-07 4.18409e-07 0)
(2.98421e-07 4.19094e-07 0)
(3.03005e-07 4.19777e-07 0)
(3.07597e-07 4.20456e-07 0)
(3.12195e-07 4.2113e-07 0)
(3.16796e-07 4.218e-07 0)
(3.21398e-07 4.22464e-07 0)
(3.25998e-07 4.23122e-07 0)
(3.30594e-07 4.23773e-07 0)
(3.35183e-07 4.24417e-07 0)
(3.39764e-07 4.25052e-07 0)
(3.44332e-07 4.25678e-07 0)
(3.48887e-07 4.26294e-07 0)
(3.53425e-07 4.26899e-07 0)
(3.57945e-07 4.27493e-07 0)
(3.62444e-07 4.28074e-07 0)
(3.6692e-07 4.28642e-07 0)
(3.71371e-07 4.29196e-07 0)
(3.75794e-07 4.29735e-07 0)
(3.80188e-07 4.30258e-07 7.14404e-50)
(3.8455e-07 4.30765e-07 9.20849e-35)
(3.8888e-07 4.31254e-07 -9.20848e-35)
(3.93175e-07 4.31724e-07 1.8643e-49)
(3.97433e-07 4.32175e-07 0)
(4.01654e-07 4.32606e-07 0)
(4.05835e-07 4.33015e-07 0)
(4.09975e-07 4.33403e-07 0)
(4.14073e-07 4.33767e-07 0)
(4.18128e-07 4.34108e-07 0)
(4.22138e-07 4.34423e-07 0)
(4.26104e-07 4.34713e-07 0)
(4.30024e-07 4.34977e-07 0)
(4.33898e-07 4.35213e-07 0)
(4.37724e-07 4.3542e-07 0)
(4.41504e-07 4.35599e-07 0)
(4.45236e-07 4.35748e-07 0)
(4.4892e-07 4.35866e-07 0)
(4.52556e-07 4.35953e-07 0)
(4.56145e-07 4.36007e-07 0)
(4.59687e-07 4.36029e-07 0)
(4.63181e-07 4.36017e-07 0)
(4.66629e-07 4.35971e-07 0)
(4.70031e-07 4.3589e-07 0)
(4.73388e-07 4.35774e-07 0)
(4.767e-07 4.35621e-07 0)
(4.79968e-07 4.35432e-07 0)
(4.83194e-07 4.35205e-07 0)
(4.86378e-07 4.34941e-07 0)
(4.89522e-07 4.34638e-07 0)
(4.92627e-07 4.34298e-07 0)
(4.95693e-07 4.33918e-07 0)
(4.98723e-07 4.33499e-07 0)
(5.01718e-07 4.3304e-07 0)
(5.0468e-07 4.32541e-07 0)
(5.07609e-07 4.32002e-07 0)
(5.10508e-07 4.31423e-07 0)
(5.13378e-07 4.30803e-07 0)
(5.16221e-07 4.30143e-07 0)
(5.19038e-07 4.29441e-07 0)
(5.21832e-07 4.28699e-07 0)
(5.24603e-07 4.27915e-07 0)
(5.27354e-07 4.27091e-07 0)
(5.30087e-07 4.26225e-07 0)
(5.32802e-07 4.25319e-07 0)
(5.35502e-07 4.24372e-07 0)
(5.38189e-07 4.23383e-07 0)
(5.40863e-07 4.22355e-07 0)
(5.43528e-07 4.21285e-07 0)
(5.46183e-07 4.20176e-07 0)
(5.48831e-07 4.19026e-07 0)
(5.51474e-07 4.17836e-07 0)
(5.54112e-07 4.16607e-07 0)
(5.56747e-07 4.15338e-07 0)
(5.5938e-07 4.1403e-07 0)
(5.62013e-07 4.12684e-07 0)
(5.64647e-07 4.11299e-07 0)
(5.67283e-07 4.09876e-07 0)
(5.69921e-07 4.08415e-07 0)
(5.72563e-07 4.06918e-07 0)
(5.7521e-07 4.05383e-07 0)
(5.77862e-07 4.03812e-07 0)
(5.8052e-07 4.02204e-07 0)
(5.83185e-07 4.00562e-07 0)
(5.85857e-07 3.98884e-07 0)
(5.88536e-07 3.97171e-07 0)
(5.91224e-07 3.95425e-07 0)
(5.93919e-07 3.93644e-07 0)
(5.96622e-07 3.9183e-07 0)
(5.99333e-07 3.89984e-07 0)
(6.02052e-07 3.88106e-07 0)
(6.04778e-07 3.86195e-07 0)
(6.07512e-07 3.84254e-07 0)
(6.10252e-07 3.82282e-07 0)
(6.12999e-07 3.80279e-07 0)
(6.15752e-07 3.78247e-07 0)
(6.1851e-07 3.76186e-07 0)
(6.21271e-07 3.74096e-07 0)
(6.24036e-07 3.71977e-07 0)
(6.26803e-07 3.69832e-07 0)
(6.29571e-07 3.67658e-07 0)
(6.32338e-07 3.65459e-07 0)
(6.35104e-07 3.63233e-07 0)
(6.37867e-07 3.60981e-07 0)
(6.40625e-07 3.58704e-07 0)
(6.43378e-07 3.56402e-07 0)
(6.46122e-07 3.54076e-07 0)
(6.48857e-07 3.51726e-07 0)
(6.5158e-07 3.49353e-07 0)
(6.5429e-07 3.46957e-07 0)
(6.56985e-07 3.44538e-07 0)
(6.59663e-07 3.42097e-07 0)
(6.62321e-07 3.39635e-07 0)
(6.64958e-07 3.37151e-07 0)
(6.6757e-07 3.34646e-07 0)
(6.70157e-07 3.3212e-07 0)
(6.72715e-07 3.29575e-07 0)
(6.75243e-07 3.27009e-07 0)
(6.77737e-07 3.24424e-07 0)
(6.80196e-07 3.2182e-07 0)
(6.82617e-07 3.19197e-07 0)
(6.84997e-07 3.16555e-07 0)
(6.87334e-07 3.13895e-07 0)
(6.89626e-07 3.11217e-07 0)
(6.91871e-07 3.08522e-07 0)
(6.94064e-07 3.05809e-07 0)
(6.96205e-07 3.03079e-07 0)
(6.98291e-07 3.00331e-07 0)
(7.00318e-07 2.97567e-07 0)
(7.02286e-07 2.94787e-07 0)
(7.04191e-07 2.9199e-07 0)
(7.06031e-07 2.89177e-07 0)
(7.07804e-07 2.86348e-07 0)
(7.09508e-07 2.83503e-07 0)
(7.1114e-07 2.80643e-07 0)
(7.12698e-07 2.77767e-07 0)
(7.14181e-07 2.74876e-07 0)
(7.15585e-07 2.71969e-07 0)
(7.16911e-07 2.69048e-07 0)
(7.18155e-07 2.66112e-07 0)
(7.19316e-07 2.6316e-07 0)
(7.20392e-07 2.60195e-07 0)
(7.21382e-07 2.57214e-07 0)
(7.22285e-07 2.5422e-07 0)
(7.23099e-07 2.51211e-07 0)
(7.23823e-07 2.48187e-07 0)
(7.24457e-07 2.4515e-07 0)
(7.24999e-07 2.42099e-07 0)
(7.25448e-07 2.39034e-07 0)
(7.25806e-07 2.35955e-07 0)
(7.26069e-07 2.32863e-07 0)
(7.2624e-07 2.29757e-07 0)
(7.26317e-07 2.26638e-07 0)
(7.263e-07 2.23506e-07 0)
(7.2619e-07 2.2036e-07 0)
(7.25988e-07 2.17202e-07 0)
(7.25694e-07 2.14031e-07 0)
(7.25308e-07 2.10848e-07 0)
(7.24832e-07 2.07652e-07 0)
(7.24267e-07 2.04444e-07 0)
(7.23614e-07 2.01225e-07 0)
(7.22874e-07 1.97993e-07 0)
(7.2205e-07 1.94751e-07 0)
(7.21144e-07 1.91497e-07 0)
(7.20156e-07 1.88232e-07 0)
(7.1909e-07 1.84956e-07 0)
(7.17948e-07 1.81671e-07 0)
(7.16732e-07 1.78375e-07 0)
(7.15445e-07 1.7507e-07 0)
(7.14091e-07 1.71756e-07 0)
(7.12672e-07 1.68433e-07 0)
(7.11191e-07 1.65101e-07 0)
(7.09653e-07 1.61762e-07 0)
(7.08059e-07 1.58415e-07 0)
(7.06415e-07 1.55061e-07 0)
(7.04724e-07 1.517e-07 0)
(7.02989e-07 1.48334e-07 0)
(7.01216e-07 1.44962e-07 0)
(6.99408e-07 1.41585e-07 0)
(6.97569e-07 1.38204e-07 0)
(6.95704e-07 1.34819e-07 0)
(6.93818e-07 1.31432e-07 0)
(6.91915e-07 1.28042e-07 0)
(6.89999e-07 1.2465e-07 0)
(6.88075e-07 1.21258e-07 0)
(6.86148e-07 1.17865e-07 0)
(6.84223e-07 1.14473e-07 0)
(6.82305e-07 1.11083e-07 0)
(6.80398e-07 1.07695e-07 0)
(6.78506e-07 1.0431e-07 0)
(6.76636e-07 1.00929e-07 0)
(6.7479e-07 9.75525e-08 0)
(6.72975e-07 9.41822e-08 0)
(6.71194e-07 9.08186e-08 0)
(6.69451e-07 8.74627e-08 0)
(6.67751e-07 8.41157e-08 0)
(6.66099e-07 8.07786e-08 0)
(6.64496e-07 7.74524e-08 0)
(6.62948e-07 7.41385e-08 0)
(6.61457e-07 7.08379e-08 0)
(6.60027e-07 6.7552e-08 0)
(6.58658e-07 6.42822e-08 0)
(6.57354e-07 6.10299e-08 0)
(6.56115e-07 5.77967e-08 0)
(6.54941e-07 5.45844e-08 0)
(6.53832e-07 5.13949e-08 0)
(6.52786e-07 4.82302e-08 0)
(6.51799e-07 4.50929e-08 0)
(6.50866e-07 4.19857e-08 0)
(6.49979e-07 3.89118e-08 0)
(6.49127e-07 3.5875e-08 0)
(6.48297e-07 3.28801e-08 0)
(6.47469e-07 2.99329e-08 0)
(6.46616e-07 2.70408e-08 0)
(6.45706e-07 2.4214e-08 0)
(6.44691e-07 2.14664e-08 0)
(6.43508e-07 1.8819e-08 0)
(6.42124e-07 1.63052e-08 0)
(6.40416e-07 1.39763e-08 0)
(6.37528e-07 1.19089e-08 0)
(6.29932e-07 1.02559e-08 0)
(4.77825e-07 7.0365e-09 0)
(-4.97933e-09 9.64659e-08 0)
(5.26644e-08 2.17995e-07 0)
(9.2892e-08 2.89729e-07 0)
(1.19757e-07 3.27395e-07 0)
(1.36704e-07 3.48075e-07 0)
(1.47002e-07 3.59967e-07 0)
(1.5312e-07 3.67202e-07 0)
(1.5672e-07 3.71903e-07 0)
(1.58844e-07 3.75171e-07 0)
(1.60131e-07 3.7759e-07 0)
(1.60971e-07 3.79483e-07 0)
(1.61605e-07 3.81033e-07 0)
(1.6218e-07 3.82353e-07 0)
(1.62786e-07 3.83508e-07 0)
(1.63477e-07 3.84542e-07 0)
(1.64286e-07 3.85485e-07 0)
(1.65232e-07 3.86356e-07 0)
(1.66326e-07 3.8717e-07 0)
(1.67574e-07 3.87935e-07 0)
(1.68979e-07 3.88661e-07 0)
(1.70539e-07 3.89353e-07 0)
(1.72255e-07 3.90017e-07 0)
(1.74124e-07 3.90656e-07 0)
(1.76145e-07 3.91274e-07 0)
(1.78314e-07 3.91874e-07 0)
(1.8063e-07 3.92459e-07 0)
(1.8309e-07 3.9303e-07 0)
(1.85691e-07 3.93589e-07 0)
(1.88432e-07 3.9414e-07 0)
(1.91309e-07 3.94681e-07 0)
(1.94322e-07 3.95216e-07 0)
(1.97468e-07 3.95746e-07 0)
(2.00745e-07 3.96271e-07 0)
(2.04151e-07 3.96792e-07 0)
(2.07685e-07 3.97311e-07 0)
(2.11346e-07 3.97828e-07 0)
(2.15131e-07 3.98343e-07 0)
(2.1904e-07 3.98859e-07 0)
(2.23071e-07 3.99375e-07 0)
(2.27223e-07 3.99891e-07 0)
(2.31495e-07 4.00409e-07 0)
(2.35884e-07 4.00929e-07 0)
(2.40391e-07 4.01451e-07 0)
(2.45014e-07 4.01976e-07 0)
(2.49751e-07 4.02505e-07 0)
(2.54601e-07 4.03036e-07 0)
(2.59563e-07 4.03572e-07 0)
(2.64636e-07 4.04112e-07 0)
(2.69819e-07 4.04656e-07 0)
(2.75109e-07 4.05205e-07 0)
(2.80505e-07 4.05758e-07 0)
(2.86007e-07 4.06317e-07 0)
(2.91612e-07 4.06881e-07 0)
(2.97319e-07 4.07451e-07 0)
(3.03125e-07 4.08026e-07 0)
(3.09031e-07 4.08607e-07 0)
(3.15032e-07 4.09193e-07 0)
(3.21128e-07 4.09786e-07 0)
(3.27317e-07 4.10384e-07 0)
(3.33595e-07 4.10988e-07 0)
(3.39963e-07 4.11598e-07 0)
(3.46416e-07 4.12214e-07 0)
(3.52953e-07 4.12835e-07 0)
(3.59571e-07 4.13462e-07 0)
(3.66267e-07 4.14095e-07 0)
(3.7304e-07 4.14734e-07 0)
(3.79886e-07 4.15377e-07 0)
(3.86802e-07 4.16026e-07 0)
(3.93786e-07 4.1668e-07 0)
(4.00835e-07 4.17339e-07 0)
(4.07945e-07 4.18002e-07 0)
(4.15113e-07 4.1867e-07 0)
(4.22337e-07 4.19341e-07 0)
(4.29612e-07 4.20017e-07 0)
(4.36936e-07 4.20695e-07 0)
(4.44305e-07 4.21377e-07 0)
(4.51714e-07 4.22061e-07 0)
(4.59162e-07 4.22747e-07 0)
(4.66644e-07 4.23435e-07 0)
(4.74155e-07 4.24123e-07 0)
(4.81694e-07 4.24813e-07 0)
(4.89255e-07 4.25502e-07 0)
(4.96834e-07 4.26191e-07 0)
(5.04429e-07 4.26879e-07 0)
(5.12034e-07 4.27565e-07 0)
(5.19647e-07 4.28249e-07 0)
(5.27263e-07 4.28929e-07 0)
(5.34878e-07 4.29606e-07 0)
(5.42488e-07 4.30277e-07 0)
(5.50089e-07 4.30944e-07 0)
(5.57679e-07 4.31604e-07 0)
(5.65251e-07 4.32257e-07 0)
(5.72804e-07 4.32901e-07 0)
(5.80333e-07 4.33537e-07 0)
(5.87835e-07 4.34163e-07 0)
(5.95305e-07 4.34779e-07 0)
(6.02741e-07 4.35382e-07 0)
(6.1014e-07 4.35973e-07 0)
(6.17497e-07 4.3655e-07 0)
(6.2481e-07 4.37112e-07 0)
(6.32077e-07 4.37659e-07 0)
(6.39293e-07 4.38188e-07 0)
(6.46456e-07 4.387e-07 0)
(6.53564e-07 4.39193e-07 0)
(6.60615e-07 4.39665e-07 0)
(6.67605e-07 4.40117e-07 0)
(6.74533e-07 4.40546e-07 0)
(6.81398e-07 4.40953e-07 0)
(6.88197e-07 4.41335e-07 0)
(6.94928e-07 4.41691e-07 0)
(7.01591e-07 4.42021e-07 0)
(7.08184e-07 4.42324e-07 0)
(7.14707e-07 4.42598e-07 0)
(7.21158e-07 4.42843e-07 0)
(7.27537e-07 4.43057e-07 0)
(7.33843e-07 4.4324e-07 0)
(7.40077e-07 4.43391e-07 0)
(7.46238e-07 4.43508e-07 0)
(7.52326e-07 4.43591e-07 0)
(7.58342e-07 4.43639e-07 0)
(7.64287e-07 4.43651e-07 0)
(7.70161e-07 4.43627e-07 0)
(7.75964e-07 4.43565e-07 0)
(7.81699e-07 4.43464e-07 0)
(7.87365e-07 4.43325e-07 0)
(7.92966e-07 4.43146e-07 0)
(7.98501e-07 4.42927e-07 0)
(8.03973e-07 4.42668e-07 0)
(8.09383e-07 4.42367e-07 0)
(8.14733e-07 4.42024e-07 0)
(8.20026e-07 4.41639e-07 0)
(8.25263e-07 4.41211e-07 0)
(8.30447e-07 4.40741e-07 0)
(8.35579e-07 4.40227e-07 0)
(8.40663e-07 4.39669e-07 0)
(8.457e-07 4.39067e-07 0)
(8.50694e-07 4.38422e-07 0)
(8.55645e-07 4.37732e-07 0)
(8.60558e-07 4.36998e-07 0)
(8.65435e-07 4.36219e-07 0)
(8.70277e-07 4.35396e-07 0)
(8.75089e-07 4.34529e-07 0)
(8.79872e-07 4.33617e-07 0)
(8.84628e-07 4.32661e-07 0)
(8.89361e-07 4.31661e-07 0)
(8.94073e-07 4.30617e-07 0)
(8.98766e-07 4.2953e-07 0)
(9.03443e-07 4.28399e-07 0)
(9.08106e-07 4.27224e-07 0)
(9.12757e-07 4.26007e-07 0)
(9.17398e-07 4.24747e-07 0)
(9.22033e-07 4.23445e-07 0)
(9.26661e-07 4.22101e-07 0)
(9.31286e-07 4.20715e-07 0)
(9.35909e-07 4.19289e-07 0)
(9.40532e-07 4.17822e-07 0)
(9.45156e-07 4.16315e-07 0)
(9.49783e-07 4.14769e-07 0)
(9.54414e-07 4.13184e-07 0)
(9.5905e-07 4.1156e-07 0)
(9.63692e-07 4.09899e-07 0)
(9.68341e-07 4.082e-07 0)
(9.72999e-07 4.06464e-07 0)
(9.77664e-07 4.04693e-07 0)
(9.82338e-07 4.02886e-07 0)
(9.87021e-07 4.01044e-07 0)
(9.91713e-07 3.99168e-07 0)
(9.96415e-07 3.97259e-07 0)
(1.00112e-06 3.95316e-07 0)
(1.00584e-06 3.93342e-07 0)
(1.01057e-06 3.91336e-07 0)
(1.0153e-06 3.89299e-07 0)
(1.02004e-06 3.87231e-07 0)
(1.02479e-06 3.85134e-07 0)
(1.02953e-06 3.83008e-07 0)
(1.03429e-06 3.80854e-07 0)
(1.03904e-06 3.78672e-07 0)
(1.04379e-06 3.76463e-07 0)
(1.04854e-06 3.74228e-07 0)
(1.05328e-06 3.71966e-07 0)
(1.05802e-06 3.6968e-07 0)
(1.06275e-06 3.67369e-07 0)
(1.06747e-06 3.65035e-07 0)
(1.07217e-06 3.62677e-07 0)
(1.07686e-06 3.60296e-07 0)
(1.08153e-06 3.57893e-07 0)
(1.08618e-06 3.55468e-07 0)
(1.0908e-06 3.53023e-07 0)
(1.09539e-06 3.50557e-07 0)
(1.09995e-06 3.48071e-07 0)
(1.10448e-06 3.45565e-07 0)
(1.10896e-06 3.4304e-07 0)
(1.11341e-06 3.40497e-07 0)
(1.11781e-06 3.37936e-07 0)
(1.12216e-06 3.35357e-07 0)
(1.12646e-06 3.3276e-07 0)
(1.1307e-06 3.30147e-07 0)
(1.13488e-06 3.27517e-07 0)
(1.13899e-06 3.24872e-07 0)
(1.14304e-06 3.2221e-07 0)
(1.14701e-06 3.19533e-07 0)
(1.15091e-06 3.1684e-07 0)
(1.15473e-06 3.14133e-07 0)
(1.15846e-06 3.11411e-07 0)
(1.1621e-06 3.08674e-07 0)
(1.16565e-06 3.05923e-07 0)
(1.1691e-06 3.03159e-07 0)
(1.17246e-06 3.0038e-07 0)
(1.17571e-06 2.97588e-07 0)
(1.17885e-06 2.94782e-07 0)
(1.18188e-06 2.91963e-07 0)
(1.18479e-06 2.8913e-07 0)
(1.18759e-06 2.86284e-07 0)
(1.19026e-06 2.83425e-07 0)
(1.19281e-06 2.80553e-07 0)
(1.19523e-06 2.77668e-07 0)
(1.19752e-06 2.7477e-07 0)
(1.19967e-06 2.71858e-07 0)
(1.20169e-06 2.68934e-07 0)
(1.20356e-06 2.65997e-07 0)
(1.2053e-06 2.63047e-07 0)
(1.20689e-06 2.60083e-07 0)
(1.20833e-06 2.57107e-07 0)
(1.20962e-06 2.54117e-07 0)
(1.21077e-06 2.51114e-07 0)
(1.21176e-06 2.48098e-07 0)
(1.2126e-06 2.45069e-07 0)
(1.21329e-06 2.42026e-07 0)
(1.21382e-06 2.38969e-07 0)
(1.2142e-06 2.35899e-07 0)
(1.21443e-06 2.32815e-07 0)
(1.2145e-06 2.29718e-07 0)
(1.21441e-06 2.26607e-07 0)
(1.21418e-06 2.23482e-07 0)
(1.21379e-06 2.20343e-07 0)
(1.21324e-06 2.1719e-07 0)
(1.21255e-06 2.14023e-07 0)
(1.21171e-06 2.10842e-07 0)
(1.21073e-06 2.07648e-07 0)
(1.2096e-06 2.04439e-07 0)
(1.20833e-06 2.01216e-07 0)
(1.20692e-06 1.97979e-07 0)
(1.20537e-06 1.94729e-07 0)
(1.2037e-06 1.91464e-07 0)
(1.2019e-06 1.88186e-07 0)
(1.19997e-06 1.84894e-07 0)
(1.19793e-06 1.81589e-07 0)
(1.19577e-06 1.7827e-07 0)
(1.1935e-06 1.74938e-07 0)
(1.19113e-06 1.71594e-07 0)
(1.18865e-06 1.68237e-07 0)
(1.18609e-06 1.64867e-07 0)
(1.18344e-06 1.61485e-07 0)
(1.1807e-06 1.58092e-07 0)
(1.17789e-06 1.54687e-07 0)
(1.17502e-06 1.51272e-07 0)
(1.17208e-06 1.47846e-07 0)
(1.16909e-06 1.44409e-07 0)
(1.16605e-06 1.40964e-07 0)
(1.16296e-06 1.3751e-07 0)
(1.15985e-06 1.34047e-07 0)
(1.15671e-06 1.30577e-07 0)
(1.15355e-06 1.27099e-07 0)
(1.15039e-06 1.23616e-07 0)
(1.14722e-06 1.20126e-07 0)
(1.14405e-06 1.16633e-07 0)
(1.1409e-06 1.13135e-07 0)
(1.13777e-06 1.09634e-07 0)
(1.13466e-06 1.06132e-07 0)
(1.13159e-06 1.02629e-07 0)
(1.12856e-06 9.91252e-08 0)
(1.12559e-06 9.56231e-08 0)
(1.12267e-06 9.21234e-08 0)
(1.11981e-06 8.86275e-08 0)
(1.11703e-06 8.51367e-08 0)
(1.11432e-06 8.16524e-08 0)
(1.1117e-06 7.81763e-08 0)
(1.10916e-06 7.47101e-08 0)
(1.10671e-06 7.12556e-08 0)
(1.10436e-06 6.7815e-08 0)
(1.10211e-06 6.43905e-08 0)
(1.09996e-06 6.09846e-08 0)
(1.09791e-06 5.76004e-08 0)
(1.09597e-06 5.42412e-08 0)
(1.09412e-06 5.09109e-08 0)
(1.09236e-06 4.76141e-08 0)
(1.0907e-06 4.43562e-08 0)
(1.0891e-06 4.11439e-08 0)
(1.08757e-06 3.79852e-08 0)
(1.08608e-06 3.489e-08 0)
(1.0846e-06 3.1871e-08 0)
(1.0831e-06 2.89443e-08 0)
(1.08153e-06 2.6131e-08 0)
(1.07985e-06 2.34594e-08 0)
(1.07796e-06 2.09678e-08 0)
(1.07588e-06 1.87099e-08 0)
(1.07337e-06 1.67544e-08 0)
(1.06905e-06 1.51755e-08 0)
(1.05758e-06 1.40164e-08 0)
(8.03429e-07 1.02747e-08 0)
(-1.50926e-09 7.33896e-08 0)
(4.01728e-08 1.78961e-07 0)
(7.82467e-08 2.54213e-07 0)
(1.10888e-07 3.01083e-07 0)
(1.36068e-07 3.30067e-07 0)
(1.54517e-07 3.48089e-07 0)
(1.67819e-07 3.59505e-07 0)
(1.77435e-07 3.6694e-07 0)
(1.84495e-07 3.71946e-07 0)
(1.89821e-07 3.75444e-07 0)
(1.9399e-07 3.77983e-07 0)
(1.97405e-07 3.799e-07 0)
(2.00343e-07 3.81403e-07 0)
(2.02995e-07 3.82622e-07 0)
(2.05494e-07 3.83644e-07 0)
(2.07932e-07 3.84523e-07 0)
(2.10375e-07 3.85296e-07 0)
(2.12868e-07 3.8599e-07 0)
(2.15445e-07 3.86621e-07 0)
(2.18127e-07 3.87204e-07 0)
(2.20933e-07 3.87748e-07 0)
(2.23873e-07 3.8826e-07 0)
(2.26957e-07 3.88746e-07 0)
(2.30191e-07 3.8921e-07 0)
(2.33579e-07 3.89656e-07 0)
(2.37125e-07 3.90087e-07 0)
(2.40829e-07 3.90505e-07 0)
(2.44694e-07 3.90913e-07 0)
(2.4872e-07 3.91313e-07 0)
(2.52908e-07 3.91706e-07 0)
(2.57258e-07 3.92093e-07 0)
(2.61769e-07 3.92475e-07 0)
(2.66442e-07 3.92855e-07 0)
(2.71275e-07 3.93232e-07 0)
(2.76269e-07 3.93608e-07 0)
(2.81423e-07 3.93983e-07 0)
(2.86736e-07 3.94358e-07 0)
(2.92208e-07 3.94734e-07 0)
(2.97837e-07 3.95112e-07 0)
(3.03624e-07 3.95491e-07 0)
(3.09566e-07 3.95873e-07 0)
(3.15664e-07 3.96259e-07 0)
(3.21916e-07 3.96648e-07 0)
(3.28321e-07 3.97041e-07 0)
(3.34878e-07 3.97438e-07 0)
(3.41586e-07 3.9784e-07 0)
(3.48444e-07 3.98248e-07 0)
(3.5545e-07 3.98661e-07 0)
(3.62603e-07 3.9908e-07 0)
(3.69902e-07 3.99505e-07 0)
(3.77344e-07 3.99937e-07 0)
(3.84929e-07 4.00376e-07 0)
(3.92655e-07 4.00822e-07 0)
(4.0052e-07 4.01275e-07 0)
(4.08521e-07 4.01736e-07 0)
(4.16657e-07 4.02204e-07 0)
(4.24925e-07 4.02681e-07 0)
(4.33323e-07 4.03165e-07 0)
(4.4185e-07 4.03658e-07 0)
(4.50501e-07 4.04159e-07 0)
(4.59275e-07 4.04668e-07 0)
(4.68169e-07 4.05186e-07 0)
(4.77179e-07 4.05713e-07 0)
(4.86303e-07 4.06249e-07 0)
(4.95538e-07 4.06793e-07 0)
(5.0488e-07 4.07345e-07 0)
(5.14326e-07 4.07907e-07 0)
(5.23871e-07 4.08477e-07 0)
(5.33514e-07 4.09055e-07 0)
(5.43249e-07 4.09642e-07 0)
(5.53072e-07 4.10237e-07 0)
(5.6298e-07 4.10841e-07 0)
(5.72969e-07 4.11452e-07 0)
(5.83033e-07 4.1207e-07 0)
(5.93169e-07 4.12697e-07 0)
(6.03372e-07 4.1333e-07 0)
(6.13638e-07 4.1397e-07 0)
(6.23961e-07 4.14617e-07 0)
(6.34337e-07 4.1527e-07 0)
(6.44761e-07 4.15928e-07 0)
(6.55229e-07 4.16591e-07 0)
(6.65734e-07 4.17259e-07 0)
(6.76272e-07 4.17931e-07 0)
(6.86837e-07 4.18607e-07 0)
(6.97425e-07 4.19285e-07 0)
(7.08031e-07 4.19966e-07 0)
(7.18648e-07 4.20648e-07 0)
(7.29273e-07 4.21331e-07 0)
(7.39899e-07 4.22014e-07 0)
(7.50521e-07 4.22695e-07 0)
(7.61135e-07 4.23376e-07 0)
(7.71735e-07 4.24053e-07 0)
(7.82317e-07 4.24727e-07 0)
(7.92874e-07 4.25396e-07 0)
(8.03403e-07 4.2606e-07 0)
(8.13898e-07 4.26717e-07 0)
(8.24355e-07 4.27366e-07 0)
(8.34769e-07 4.28007e-07 0)
(8.45136e-07 4.28637e-07 0)
(8.55452e-07 4.29256e-07 0)
(8.65712e-07 4.29863e-07 0)
(8.75913e-07 4.30457e-07 0)
(8.8605e-07 4.31035e-07 0)
(8.9612e-07 4.31598e-07 0)
(9.06121e-07 4.32143e-07 0)
(9.16048e-07 4.3267e-07 0)
(9.25898e-07 4.33177e-07 0)
(9.3567e-07 4.33663e-07 0)
(9.4536e-07 4.34126e-07 0)
(9.54967e-07 4.34566e-07 0)
(9.64487e-07 4.34981e-07 0)
(9.7392e-07 4.3537e-07 0)
(9.83265e-07 4.35731e-07 0)
(9.92518e-07 4.36063e-07 0)
(1.00168e-06 4.36366e-07 0)
(1.01075e-06 4.36637e-07 0)
(1.01973e-06 4.36877e-07 0)
(1.02861e-06 4.37082e-07 0)
(1.03741e-06 4.37254e-07 0)
(1.04611e-06 4.37389e-07 0)
(1.05471e-06 4.37488e-07 0)
(1.06323e-06 4.37549e-07 0)
(1.07165e-06 4.37572e-07 0)
(1.07999e-06 4.37554e-07 0)
(1.08824e-06 4.37497e-07 0)
(1.0964e-06 4.37398e-07 0)
(1.10448e-06 4.37257e-07 0)
(1.11247e-06 4.37073e-07 0)
(1.12038e-06 4.36846e-07 0)
(1.12822e-06 4.36574e-07 0)
(1.13598e-06 4.36258e-07 0)
(1.14366e-06 4.35896e-07 0)
(1.15127e-06 4.35489e-07 0)
(1.15882e-06 4.35035e-07 0)
(1.1663e-06 4.34535e-07 0)
(1.17372e-06 4.33988e-07 0)
(1.18108e-06 4.33394e-07 0)
(1.18838e-06 4.32752e-07 0)
(1.19563e-06 4.32063e-07 0)
(1.20283e-06 4.31327e-07 0)
(1.20999e-06 4.30543e-07 0)
(1.2171e-06 4.29711e-07 0)
(1.22417e-06 4.28832e-07 0)