/*--------------------------------*- C++ -*----------------------------------*\
| =========                 |                                                 |
| \\      /  F ield         | OpenFOAM: The Open Source CFD Toolbox           |
|  \\    /   O peration     | Version:  2512                                  |
|   \\  /    A nd           | Website:  www.openfoam.com                      |
|    \\/     M anipulation  |                                                 |
\*---------------------------------------------------------------------------*/
FoamFile
{
    version     2.0;
    format      ascii;
    arch        "LSB;label=32;scalar=64";
    class       volScalarField;
    location    "2775";
    object      p;
}
// * * * * * * * * * * * * * * * * * * * * * * * * * * * * * * * * * * * * * //

dimensions      [0 2 -2 0 0 0 0];

internalField   nonuniform List<scalar> 
66422
(
0.020544
0.0237199
0.0256843
0.0267201
0.0274208
0.0279382
0.0283312
0.0286405
0.0288919
0.0291012
0.0292789
0.0294318
0.0295648
0.0296815
0.0297844
0.0298756
0.0299565
0.0300282
0.0300919
0.0301481
0.0301976
0.0302407
0.0302781
0.0303099
0.0303365
0.0303582
0.0303751
0.0303875
0.0303954
0.0303991
0.0303986
0.0303939
0.0303853
0.0303728
0.0303563
0.030336
0.0303119
0.030284
0.0302524
0.030217
0.0301779
0.0301351
0.0300886
0.0300383
0.0299843
0.0299266
0.0298651
0.0297999
0.0297309
0.0296581
0.0295816
0.0295011
0.0294169
0.0293287
0.0292367
0.0291407
0.0290409
0.028937
0.0288291
0.0287173
0.0286014
0.0284814
0.0283573
0.0282291
0.0280968
0.0279604
0.0278198
0.027675
0.027526
0.0273727
0.0272153
0.0270536
0.0268877
0.0267175
0.0265431
0.0263645
0.0261816
0.0259944
0.025803
0.0256075
0.0254077
0.0252037
0.0249956
0.0247834
0.024567
0.0243467
0.0241223
0.0238939
0.0236616
0.0234254
0.0231854
0.0229416
0.0226942
0.0224431
0.0221885
0.0219304
0.021669
0.0214042
0.0211362
0.0208651
0.020591
0.0203139
0.020034
0.0197515
0.0194663
0.0191787
0.0188887
0.0185965
0.0183022
0.0180059
0.0177078
0.0174079
0.0171065
0.0168037
0.0164995
0.0161942
0.0158878
0.0155806
0.0152726
0.0149641
0.0146551
0.0143458
0.0140364
0.0137269
0.0134176
0.0131085
0.0127999
0.0124919
0.0121845
0.011878
0.0115724
0.011268
0.0109648
0.0106629
0.0103626
0.0100639
0.00976697
0.0094719
0.00917882
0.00888786
0.00859911
0.0083127
0.00802872
0.00774728
0.00746848
0.00719241
0.00691917
0.00664885
0.00638154
0.00611732
0.00585626
0.00559844
0.00534395
0.00509283
0.00484517
0.00460102
0.00436044
0.00412349
0.00389022
0.00366067
0.0034349
0.00321294
0.00299484
0.00278063
0.00257034
0.002364
0.00216164
0.00196328
0.00176894
0.00157864
0.0013924
0.00121022
0.00103212
0.000858097
0.000688162
0.000522314
0.000360552
0.000202872
4.92668e-05
-0.000100271
-0.000245753
-0.000387191
-0.000524603
-0.000658005
-0.000787416
-0.00091286
-0.00103436
-0.00115194
-0.00126563
-0.00137547
-0.00148147
-0.00158368
-0.00168212
-0.00177685
-0.00186789
-0.00195529
-0.00203908
-0.00211931
-0.00219603
-0.00226929
-0.00233912
-0.00240558
-0.00246871
-0.00252858
-0.00258523
-0.00263871
-0.00268908
-0.0027364
-0.00278072
-0.00282209
-0.00286058
-0.00289625
-0.00292914
-0.00295933
-0.00298687
-0.00301183
-0.00303426
-0.00305422
-0.00307178
-0.003087
-0.00309994
-0.00311065
-0.00311922
-0.00312568
-0.00313011
-0.00313257
-0.00313312
-0.00313181
-0.00312871
-0.00312388
-0.00311738
-0.00310926
-0.00309958
-0.0030884
-0.00307578
-0.00306177
-0.00304642
-0.00302979
-0.00301194
-0.0029929
-0.00297275
-0.00295151
-0.00292925
-0.00290601
-0.00288183
-0.00285676
-0.00283085
-0.00280413
-0.00277664
-0.00274843
-0.00271954
-0.00268999
-0.00265983
-0.00262909
-0.0025978
-0.00256598
-0.00253368
-0.00250091
-0.0024677
-0.00243407
-0.00240005
-0.00236565
-0.0023309
-0.0022958
-0.00226037
-0.00222462
-0.00218856
-0.0021522
-0.00211554
-0.00207857
-0.00204131
-0.00200374
-0.00196586
-0.00192764
-0.00188909
-0.00185018
-0.00181088
-0.00177116
-0.00173099
-0.00169033
-0.00164913
-0.00160732
-0.00156484
-0.00152162
-0.00147755
-0.00143252
-0.00138639
-0.001339
-0.00129014
-0.00123955
-0.0011869
-0.00113173
-0.00107341
-0.00101104
-0.000943225
-0.000867614
-0.000779805
-0.000674332
-0.000550819
-0.000328786
0.0249457
0.0260894
0.0269676
0.0276345
0.0281769
0.0286152
0.0289692
0.0292597
0.0295021
0.0297075
0.0298837
0.0300363
0.0301698
0.0302871
0.0303908
0.0304826
0.0305641
0.0306365
0.0307005
0.030757
0.0308067
0.0308499
0.0308872
0.0309189
0.0309453
0.0309665
0.030983
0.0309948
0.031002
0.0310049
0.0310035
0.0309979
0.0309882
0.0309745
0.0309568
0.0309351
0.0309096
0.0308802
0.0308469
0.0308099
0.030769
0.0307243
0.0306758
0.0306235
0.0305674
0.0305074
0.0304437
0.0303761
0.0303046
0.0302292
0.03015
0.0300669
0.0299798
0.0298887
0.0297937
0.0296946
0.0295916
0.0294845
0.0293733
0.029258
0.0291385
0.029015
0.0288872
0.0287553
0.0286191
0.0284788
0.0283341
0.0281853
0.0280321
0.0278746
0.0277129
0.0275468
0.0273764
0.0272017
0.0270227
0.0268393
0.0266517
0.0264597
0.0262635
0.0260629
0.0258582
0.0256491
0.0254359
0.0252185
0.024997
0.0247713
0.0245416
0.0243078
0.0240701
0.0238285
0.023583
0.0233337
0.0230807
0.0228241
0.0225639
0.0223001
0.022033
0.0217625
0.0214889
0.021212
0.0209322
0.0206494
0.0203638
0.0200755
0.0197846
0.0194913
0.0191956
0.0188976
0.0185976
0.0182956
0.0179918
0.0176863
0.0173792
0.0170707
0.0167609
0.01645
0.0161381
0.0158253
0.0155119
0.0151978
0.0148834
0.0145687
0.0142539
0.0139391
0.0136245
0.0133103
0.0129964
0.0126832
0.0123708
0.0120592
0.0117486
0.0114392
0.0111311
0.0108244
0.0105193
0.0102159
0.00991425
0.00961455
0.00931691
0.00902143
0.00872822
0.00843741
0.0081491
0.00786338
0.00758037
0.00730015
0.00702283
0.00674848
0.00647721
0.00620908
0.00594419
0.00568261
0.00542441
0.00516966
0.00491842
0.00467077
0.00442675
0.00418643
0.00394985
0.00371706
0.00348812
0.00326306
0.00304191
0.00282473
0.00261153
0.00240236
0.00219722
0.00199616
0.00179919
0.00160632
0.00141757
0.00123295
0.00105248
0.000876147
0.000703969
0.000535943
0.000372067
0.000212337
5.67451e-05
-9.47166e-05
-0.00024206
-0.000385298
-0.000524449
-0.000659529
-0.000790559
-0.000917562
-0.00104056
-0.00115959
-0.00127467
-0.00138583
-0.0014931
-0.00159653
-0.00169614
-0.00179198
-0.00188408
-0.00197249
-0.00205725
-0.00213839
-0.00221597
-0.00229004
-0.00236064
-0.00242783
-0.00249164
-0.00255215
-0.00260939
-0.00266342
-0.00271431
-0.0027621
-0.00280685
-0.00284862
-0.00288747
-0.00292346
-0.00295665
-0.0029871
-0.00301487
-0.00304001
-0.00306261
-0.0030827
-0.00310037
-0.00311567
-0.00312865
-0.0031394
-0.00314796
-0.0031544
-0.00315878
-0.00316117
-0.00316162
-0.0031602
-0.00315697
-0.00315198
-0.0031453
-0.00313699
-0.0031271
-0.0031157
-0.00310283
-0.00308856
-0.00307294
-0.00305602
-0.00303786
-0.00301851
-0.00299802
-0.00297644
-0.00295382
-0.00293021
-0.00290565
-0.00288019
-0.00285387
-0.00282673
-0.00279882
-0.00277017
-0.00274083
-0.00271082
-0.00268019
-0.00264897
-0.00261718
-0.00258487
-0.00255205
-0.00251876
-0.00248501
-0.00245084
-0.00241626
-0.00238129
-0.00234595
-0.00231025
-0.00227421
-0.00223783
-0.00220113
-0.00216411
-0.00212677
-0.00208911
-0.00205112
-0.00201281
-0.00197415
-0.00193514
-0.00189576
-0.00185598
-0.00181578
-0.00177512
-0.00173396
-0.00169225
-0.00164993
-0.00160695
-0.00156321
-0.00151862
-0.00147308
-0.00142645
-0.00137857
-0.00132924
-0.00127821
-0.00122516
-0.00116971
-0.0011113
-0.00104922
-0.00098244
-0.000909528
-0.000828179
-0.00073442
-0.000625758
-0.000512109
-0.00031719
0.0262122
0.0264262
0.0267409
0.0271262
0.0274991
0.02783
0.0281168
0.028364
0.0285774
0.0287624
0.0289236
0.0290649
0.0291894
0.0292994
0.0293971
0.0294838
0.0295609
0.0296294
0.02969
0.0297435
0.0297904
0.0298312
0.0298662
0.0298959
0.0299205
0.0299401
0.0299551
0.0299656
0.0299718
0.0299736
0.0299714
0.0299651
0.0299548
0.0299406
0.0299226
0.0299007
0.0298751
0.0298457
0.0298126
0.0297758
0.0297353
0.0296911
0.0296432
0.0295916
0.0295363
0.0294773
0.0294146
0.0293481
0.029278
0.029204
0.0291263
0.0290448
0.0289595
0.0288703
0.0287773
0.0286804
0.0285796
0.0284749
0.0283662
0.0282535
0.0281369
0.0280162
0.0278915
0.0277628
0.02763
0.0274931
0.0273521
0.0272069
0.0270577
0.0269042
0.0267467
0.026585
0.0264191
0.026249
0.0260748
0.0258964
0.0257139
0.0255272
0.0253364
0.0251415
0.0249425
0.0247394
0.0245323
0.0243211
0.024106
0.0238869
0.023664
0.0234372
0.0232065
0.0229722
0.0227341
0.0224924
0.0222472
0.0219984
0.0217463
0.0214908
0.0212321
0.0209701
0.0207052
0.0204372
0.0201664
0.0198927
0.0196164
0.0193376
0.0190562
0.0187726
0.0184867
0.0181987
0.0179088
0.017617
0.0173235
0.0170284
0.0167318
0.0164339
0.0161348
0.0158347
0.0155337
0.0152319
0.0149295
0.0146265
0.0143233
0.0140198
0.0137162
0.0134127
0.0131095
0.0128065
0.0125041
0.0122023
0.0119012
0.011601
0.0113019
0.0110039
0.0107072
0.0104118
0.0101181
0.00982594
0.00953559
0.00924712
0.00896066
0.00867631
0.00839418
0.00811438
0.007837
0.00756216
0.00728993
0.00702042
0.00675371
0.0064899
0.00622905
0.00597126
0.0057166
0.00546513
0.00521694
0.00497208
0.00473062
0.00449262
0.00425813
0.00402721
0.00379991
0.00357626
0.00335633
0.00314013
0.00292772
0.00271913
0.00251438
0.0023135
0.00211653
0.00192347
0.00173436
0.0015492
0.00136801
0.0011908
0.00101757
0.000848346
0.000683113
0.000521878
0.000364637
0.000211386
6.21188e-05
-8.31747e-05
-0.000224506
-0.000361888
-0.000495337
-0.000624871
-0.00075051
-0.000872277
-0.000990195
-0.00110429
-0.00121459
-0.00132113
-0.00142393
-0.00152304
-0.00161847
-0.00171029
-0.00179851
-0.00188318
-0.00196434
-0.00204204
-0.00211632
-0.00218722
-0.0022548
-0.00231909
-0.00238015
-0.00243803
-0.00249278
-0.00254446
-0.00259311
-0.00263879
-0.00268156
-0.00272147
-0.00275859
-0.00279295
-0.00282463
-0.00285368
-0.00288017
-0.00290414
-0.00292567
-0.0029448
-0.0029616
-0.00297613
-0.00298846
-0.00299863
-0.00300671
-0.00301276
-0.00301684
-0.003019
-0.00301932
-0.00301784
-0.00301462
-0.00300973
-0.00300322
-0.00299514
-0.00298555
-0.00297451
-0.00296208
-0.00294829
-0.00293322
-0.0029169
-0.00289939
-0.00288075
-0.00286101
-0.00284023
-0.00281845
-0.00279572
-0.00277208
-0.00274758
-0.00272225
-0.00269614
-0.00266929
-0.00264173
-0.0026135
-0.00258464
-0.00255517
-0.00252513
-0.00249455
-0.00246346
-0.00243188
-0.00239985
-0.00236737
-0.00233448
-0.00230119
-0.00226752
-0.00223349
-0.00219911
-0.00216439
-0.00212933
-0.00209396
-0.00205826
-0.00202224
-0.00198591
-0.00194924
-0.00191224
-0.0018749
-0.00183719
-0.0017991
-0.0017606
-0.00172167
-0.00168225
-0.00164232
-0.00160183
-0.00156069
-0.00151886
-0.00147624
-0.00143274
-0.00138823
-0.00134257
-0.00129559
-0.00124708
-0.00119678
-0.00114435
-0.00108938
-0.00103132
-0.00096946
-0.000902849
-0.000830225
-0.000749724
-0.000658162
-0.000555037
-0.000458778
-0.000306487
0.0271325
0.0271105
0.0272351
0.0274693
0.0277271
0.0279763
0.0282072
0.0284161
0.028603
0.0287692
0.0289171
0.0290486
0.0291657
0.0292701
0.0293633
0.0294465
0.0295207
0.0295866
0.0296451
0.0296968
0.0297421
0.0297814
0.0298151
0.0298435
0.0298669
0.0298855
0.0298994
0.0299089
0.0299141
0.029915
0.0299118
0.0299046
0.0298935
0.0298784
0.0298595
0.0298368
0.0298103
0.0297801
0.0297461
0.0297085
0.0296671
0.0296221
0.0295734
0.029521
0.0294648
0.029405
0.0293415
0.0292742
0.0292032
0.0291284
0.0290499
0.0289675
0.0288814
0.0287914
0.0286975
0.0285998
0.0284981
0.0283926
0.0282831
0.0281696
0.0280521
0.0279306
0.0278051
0.0276756
0.027542
0.0274043
0.0272625
0.0271165
0.0269665
0.0268123
0.026654
0.0264916
0.026325
0.0261542
0.0259793
0.0258002
0.0256171
0.0254298
0.0252384
0.0250428
0.0248433
0.0246397
0.024432
0.0242204
0.0240048
0.0237853
0.023562
0.0233348
0.0231039
0.0228692
0.0226309
0.022389
0.0221436
0.0218947
0.0216425
0.0213869
0.0211282
0.0208663
0.0206014
0.0203336
0.0200629
0.0197895
0.0195135
0.019235
0.018954
0.0186708
0.0183853
0.0180979
0.0178085
0.0175173
0.0172245
0.0169301
0.0166342
0.0163372
0.0160389
0.0157397
0.0154396
0.0151388
0.0148374
0.0145356
0.0142334
0.0139311
0.0136287
0.0133265
0.0130245
0.0127229
0.0124218
0.0121213
0.0118217
0.0115229
0.0112253
0.0109288
0.0106336
0.0103398
0.0100476
0.0097571
0.00946837
0.00918155
0.00889675
0.00861407
0.00833363
0.00805553
0.00777987
0.00750675
0.00723626
0.00696849
0.00670353
0.00644146
0.00618237
0.00592633
0.00567343
0.00542372
0.00517728
0.00493417
0.00469446
0.0044582
0.00422545
0.00399625
0.00377066
0.00354873
0.00333049
0.00311598
0.00290525
0.00269831
0.00249521
0.00229597
0.00210061
0.00190916
0.00172163
0.00153803
0.00135839
0.00118271
0.001011
0.000843258
0.000679495
0.000519708
0.000363894
0.000212049
6.41644e-05
-7.97686e-05
-0.000219762
-0.00035583
-0.000487989
-0.000616257
-0.000740655
-0.000861205
-0.000977931
-0.00109086
-0.00120002
-0.00130544
-0.00140715
-0.00150519
-0.00159959
-0.00169039
-0.00177763
-0.00186135
-0.00194158
-0.00201837
-0.00209177
-0.00216182
-0.00222857
-0.00229207
-0.00235236
-0.0024095
-0.00246353
-0.00251452
-0.0025625
-0.00260755
-0.00264971
-0.00268904
-0.00272559
-0.00275942
-0.00279059
-0.00281916
-0.00284519
-0.00286873
-0.00288985
-0.0029086
-0.00292504
-0.00293924
-0.00295125
-0.00296113
-0.00296894
-0.00297475
-0.0029786
-0.00298057
-0.0029807
-0.00297906
-0.0029757
-0.00297068
-0.00296406
-0.0029559
-0.00294624
-0.00293515
-0.00292268
-0.00290887
-0.00289379
-0.00287749
-0.00286001
-0.0028414
-0.00282171
-0.00280099
-0.00277929
-0.00275664
-0.0027331
-0.0027087
-0.00268349
-0.00265751
-0.00263079
-0.00260337
-0.00257528
-0.00254657
-0.00251726
-0.00248739
-0.00245698
-0.00242606
-0.00239466
-0.00236279
-0.0023305
-0.00229778
-0.00226467
-0.00223119
-0.00219733
-0.00216312
-0.00212858
-0.00209369
-0.00205848
-0.00202294
-0.00198708
-0.00195088
-0.00191436
-0.00187749
-0.00184026
-0.00180265
-0.00176465
-0.00172622
-0.00168734
-0.00164796
-0.00160804
-0.00156753
-0.00152635
-0.00148445
-0.00144172
-0.00139806
-0.00135335
-0.00130745
-0.00126016
-0.00121129
-0.00116056
-0.00110766
-0.00105217
-0.000993596
-0.000931293
-0.000864457
-0.00079211
-0.000712886
-0.000624366
-0.000527605
-0.000446022
-0.000316314
0.0277639
0.0276853
0.0277208
0.0278578
0.028032
0.0282161
0.0283979
0.0285704
0.0287303
0.0288766
0.0290094
0.0291296
0.029238
0.0293357
0.0294235
0.0295023
0.0295728
0.0296358
0.0296918
0.0297412
0.0297845
0.0298221
0.0298542
0.0298812
0.0299033
0.0299206
0.0299334
0.0299418
0.0299458
0.0299457
0.0299415
0.0299333
0.0299212
0.0299051
0.0298853
0.0298616
0.0298342
0.029803
0.0297681
0.0297295
0.0296872
0.0296412
0.0295915
0.0295381
0.029481
0.0294202
0.0293556
0.0292873
0.0292153
0.0291395
0.0290599
0.0289765
0.0288893
0.0287982
0.0287033
0.0286044
0.0285017
0.028395
0.0282844
0.0281698
0.0280512
0.0279286
0.0278019
0.0276712
0.0275364
0.0273975
0.0272545
0.0271074
0.0269562
0.0268008
0.0266413
0.0264777
0.0263098
0.0261379
0.0259618
0.0257816
0.0255972
0.0254087
0.0252161
0.0250194
0.0248187
0.0246139
0.0244051
0.0241924
0.0239757
0.0237551
0.0235307
0.0233024
0.0230705
0.0228348
0.0225955
0.0223526
0.0221062
0.0218564
0.0216033
0.0213469
0.0210873
0.0208246
0.020559
0.0202904
0.020019
0.0197449
0.0194683
0.0191891
0.0189076
0.0186239
0.018338
0.0180501
0.0177603
0.0174687
0.0171756
0.0168809
0.0165849
0.0162876
0.0159892
0.0156899
0.0153898
0.0150889
0.0147875
0.0144858
0.0141837
0.0138815
0.0135794
0.0132774
0.0129756
0.0126743
0.0123736
0.0120735
0.0117743
0.011476
0.0111788
0.0108829
0.0105882
0.0102951
0.0100035
0.00971361
0.00942556
0.00913945
0.00885538
0.00857347
0.00829381
0.00801652
0.00774169
0.00746942
0.0071998
0.00693292
0.00666886
0.00640772
0.00614957
0.00589448
0.00564254
0.00539381
0.00514836
0.00490625
0.00466755
0.0044323
0.00420057
0.0039724
0.00374785
0.00352695
0.00330975
0.00309629
0.0028866
0.00268071
0.00247865
0.00228045
0.00208614
0.00189572
0.00170923
0.00152667
0.00134806
0.0011734
0.00100271
0.000835985
0.00067323
0.000514443
0.000359622
0.000208762
6.18531e-05
-8.11132e-05
-0.000220149
-0.00035527
-0.000486493
-0.000613835
-0.000737318
-0.000856965
-0.000972801
-0.00108485
-0.00119315
-0.00129771
-0.00139859
-0.0014958
-0.0015894
-0.0016794
-0.00176586
-0.0018488
-0.00192829
-0.00200434
-0.00207702
-0.00214637
-0.00221243
-0.00227526
-0.0023349
-0.0023914
-0.00244481
-0.00249519
-0.0025426
-0.00258707
-0.00262868
-0.00266747
-0.00270351
-0.00273684
-0.00276754
-0.00279564
-0.00282122
-0.00284434
-0.00286504
-0.0028834
-0.00289947
-0.0029133
-0.00292497
-0.00293453
-0.00294203
-0.00294754
-0.00295112
-0.00295283
-0.00295271
-0.00295084
-0.00294727
-0.00294206
-0.00293526
-0.00292692
-0.00291711
-0.00290588
-0.00289328
-0.00287936
-0.00286418
-0.00284778
-0.00283022
-0.00281154
-0.0027918
-0.00277103
-0.0027493
-0.00272663
-0.00270307
-0.00267866
-0.00265345
-0.00262748
-0.00260078
-0.00257338
-0.00254533
-0.00251665
-0.00248738
-0.00245756
-0.0024272
-0.00239633
-0.00236499
-0.00233319
-0.00230095
-0.0022683
-0.00223526
-0.00220184
-0.00216805
-0.00213391
-0.00209943
-0.00206461
-0.00202946
-0.00199398
-0.00195816
-0.00192202
-0.00188553
-0.0018487
-0.00181149
-0.00177391
-0.00173591
-0.00169748
-0.00165858
-0.00161918
-0.00157921
-0.00153863
-0.00149738
-0.00145537
-0.00141252
-0.00136872
-0.00132384
-0.00127775
-0.00123026
-0.00118116
-0.00113022
-0.00107712
-0.0010215
-0.000962924
-0.000900857
-0.000834671
-0.00076367
-0.000686923
-0.000602578
-0.000512781
-0.000444233
-0.00032978
0.0281825
0.0280952
0.028087
0.0281636
0.0282794
0.0284133
0.0285541
0.0286938
0.028828
0.0289542
0.0290713
0.0291791
0.0292777
0.0293675
0.0294489
0.0295224
0.0295886
0.0296479
0.0297007
0.0297474
0.0297884
0.0298238
0.0298541
0.0298794
0.0298999
0.0299157
0.0299272
0.0299342
0.0299371
0.0299358
0.0299305
0.0299213
0.0299081
0.0298911
0.0298702
0.0298456
0.0298172
0.0297851
0.0297493
0.0297098
0.0296666
0.0296197
0.029569
0.0295147
0.0294567
0.029395
0.0293296
0.0292604
0.0291874
0.0291107
0.0290302
0.0289459
0.0288578
0.0287658
0.0286699
0.0285701
0.0284664
0.0283588
0.0282472
0.0281317
0.0280121
0.0278885
0.0277609
0.0276292
0.0274934
0.0273536
0.0272096
0.0270616
0.0269094
0.026753
0.0265925
0.0264279
0.0262591
0.0260862
0.0259092
0.025728
0.0255427
0.0253532
0.0251597
0.0249621
0.0247605
0.0245548
0.0243452
0.0241315
0.023914
0.0236926
0.0234674
0.0232383
0.0230056
0.0227691
0.0225291
0.0222855
0.0220385
0.0217881
0.0215343
0.0212773
0.0210172
0.020754
0.0204878
0.0202188
0.019947
0.0196726
0.0193956
0.0191161
0.0188343
0.0185504
0.0182643
0.0179762
0.0176863
0.0173947
0.0171016
0.0168069
0.0165109
0.0162138
0.0159156
0.0156165
0.0153166
0.015016
0.014715
0.0144136
0.0141119
0.0138102
0.0135086
0.0132071
0.0129059
0.0126053
0.0123052
0.0120058
0.0117073
0.0114099
0.0111135
0.0108184
0.0105246
0.0102324
0.00994174
0.00965285
0.00936581
0.00908073
0.00879772
0.0085169
0.00823836
0.0079622
0.00768853
0.00741743
0.00714901
0.00688334
0.00662052
0.00636063
0.00610374
0.00584993
0.00559927
0.00535184
0.00510769
0.0048669
0.00462952
0.0043956
0.0041652
0.00393837
0.00371516
0.00349561
0.00327975
0.00306763
0.00285928
0.00265473
0.00245401
0.00225715
0.00206416
0.00187508
0.0016899
0.00150865
0.00133135
0.00115799
0.000988582
0.000823136
0.000661649
0.000504119
0.000350545
0.000200918
5.52314e-05
-8.65258e-05
-0.000224367
-0.000358306
-0.000488361
-0.000614551
-0.000736897
-0.000855422
-0.000970152
-0.00108111
-0.00118834
-0.00129185
-0.00139169
-0.00148788
-0.00158047
-0.0016695
-0.00175499
-0.00183699
-0.00191555
-0.0019907
-0.0020625
-0.00213098
-0.00219619
-0.00225819
-0.00231703
-0.00237274
-0.00242539
-0.00247503
-0.00252172
-0.00256549
-0.00260642
-0.00264456
-0.00267996
-0.00271268
-0.00274278
-0.00277031
-0.00279534
-0.00281793
-0.00283812
-0.00285599
-0.00287159
-0.00288498
-0.00289623
-0.00290538
-0.0029125
-0.00291764
-0.00292088
-0.00292226
-0.00292184
-0.00291968
-0.00291584
-0.00291038
-0.00290334
-0.00289479
-0.00288479
-0.00287337
-0.00286061
-0.00284654
-0.00283122
-0.00281471
-0.00279705
-0.00277828
-0.00275847
-0.00273764
-0.00271585
-0.00269315
-0.00266957
-0.00264515
-0.00261994
-0.00259398
-0.00256729
-0.00253993
-0.00251191
-0.00248329
-0.00245407
-0.00242431
-0.00239402
-0.00236323
-0.00233197
-0.00230025
-0.00226811
-0.00223556
-0.00220262
-0.0021693
-0.00213562
-0.00210159
-0.00206722
-0.00203251
-0.00199747
-0.0019621
-0.0019264
-0.00189037
-0.00185399
-0.00181726
-0.00178016
-0.00174267
-0.00170477
-0.00166643
-0.00162761
-0.00158828
-0.00154839
-0.00150788
-0.00146668
-0.00142473
-0.00138193
-0.00133817
-0.00129335
-0.00124731
-0.0011999
-0.00115091
-0.00110014
-0.00104729
-0.000992079
-0.000934127
-0.000873022
-0.000808306
-0.00073953
-0.000666088
-0.000586496
-0.000503594
-0.000446539
-0.000343729
0.028487
0.0284083
0.0283829
0.0284243
0.0285012
0.0285983
0.0287064
0.0288185
0.0289298
0.0290372
0.0291391
0.0292344
0.0293229
0.0294044
0.0294789
0.0295467
0.0296081
0.0296632
0.0297125
0.0297562
0.0297944
0.0298275
0.0298556
0.029879
0.0298977
0.029912
0.0299219
0.0299276
0.0299292
0.0299267
0.0299202
0.0299098
0.0298956
0.0298775
0.0298556
0.02983
0.0298007
0.0297676
0.0297309
0.0296904
0.0296463
0.0295985
0.029547
0.0294918
0.0294329
0.0293703
0.029304
0.0292339
0.0291601
0.0290825
0.0290011
0.0289158
0.0288268
0.0287339
0.0286371
0.0285365
0.0284319
0.0283233
0.0282108
0.0280943
0.0279739
0.0278493
0.0277208
0.0275881
0.0274514
0.0273106
0.0271657
0.0270167
0.0268635
0.0267062
0.0265448
0.0263792
0.0262095
0.0260356
0.0258576
0.0256755
0.0254892
0.0252989
0.0251044
0.0249059
0.0247033
0.0244968
0.0242862
0.0240717
0.0238533
0.023631
0.0234049
0.0231751
0.0229415
0.0227043
0.0224635
0.0222192
0.0219714
0.0217203
0.0214658
0.0212082
0.0209474
0.0206837
0.0204169
0.0201474
0.0198751
0.0196002
0.0193227
0.0190429
0.0187607
0.0184764
0.0181901
0.0179018
0.0176117
0.0173199
0.0170266
0.0167319
0.0164359
0.0161388
0.0158406
0.0155416
0.0152418
0.0149415
0.0146406
0.0143395
0.0140382
0.0137368
0.0134355
0.0131345
0.0128339
0.0125337
0.0122342
0.0119354
0.0116376
0.0113408
0.0110451
0.0107508
0.0104578
0.0101664
0.00987662
0.00958863
0.00930251
0.00901839
0.00873637
0.00845657
0.00817907
0.00790398
0.0076314
0.00736143
0.00709415
0.00682964
0.006568
0.00630931
0.00605364
0.00580106
0.00555166
0.00530549
0.00506262
0.00482312
0.00458703
0.00435442
0.00412534
0.00389983
0.00367795
0.00345972
0.0032452
0.00303442
0.00282741
0.00262421
0.00242483
0.00222931
0.00203766
0.00184991
0.00166606
0.00148614
0.00131016
0.00113812
0.00097002
0.000805876
0.000645683
0.000489439
0.000337141
0.00018878
4.43494e-05
-9.61633e-05
-0.000232771
-0.00036549
-0.000494337
-0.000619332
-0.000740498
-0.000857856
-0.000971435
-0.00108126
-0.00118736
-0.00128977
-0.00138852
-0.00148364
-0.00157518
-0.00166316
-0.00174763
-0.00182863
-0.0019062
-0.00198039
-0.00205124
-0.0021188
-0.0021831
-0.00224422
-0.00230218
-0.00235705
-0.00240887
-0.00245771
-0.0025036
-0.00254662
-0.0025868
-0.00262421
-0.00265891
-0.00269095
-0.00272039
-0.00274729
-0.0027717
-0.00279369
-0.00281331
-0.00283063
-0.00284569
-0.00285857
-0.00286933
-0.00287801
-0.00288468
-0.0028894
-0.00289223
-0.00289322
-0.00289243
-0.00288993
-0.00288576
-0.00287999
-0.00287266
-0.00286384
-0.00285358
-0.00284193
-0.00282895
-0.00281468
-0.00279918
-0.0027825
-0.00276469
-0.00274579
-0.00272585
-0.00270492
-0.00268304
-0.00266026
-0.00263662
-0.00261215
-0.0025869
-0.00256091
-0.00253422
-0.00250685
-0.00247884
-0.00245023
-0.00242105
-0.00239132
-0.00236107
-0.00233034
-0.00229914
-0.0022675
-0.00223543
-0.00220296
-0.00217011
-0.00213689
-0.00210331
-0.00206938
-0.00203511
-0.00200052
-0.00196559
-0.00193034
-0.00189476
-0.00185885
-0.0018226
-0.00178599
-0.00174902
-0.00171166
-0.00167389
-0.00163568
-0.00159699
-0.0015578
-0.00151804
-0.00147767
-0.00143662
-0.00139481
-0.00135217
-0.0013086
-0.00126397
-0.00121817
-0.00117105
-0.00112242
-0.00107209
-0.00101984
-0.000965413
-0.00090852
-0.000848856
-0.000786107
-0.000720019
-0.000650215
-0.00057541
-0.000498887
-0.000451796
-0.000358008
0.0287252
0.0286597
0.0286294
0.0286507
0.028702
0.0287726
0.0288555
0.028945
0.0290366
0.0291272
0.0292149
0.0292984
0.0293769
0.02945
0.0295175
0.0295793
0.0296356
0.0296864
0.0297319
0.0297722
0.0298076
0.0298381
0.0298639
0.0298852
0.029902
0.0299145
0.0299229
0.0299271
0.0299272
0.0299234
0.0299157
0.0299042
0.0298888
0.0298696
0.0298467
0.0298201
0.0297898
0.0297557
0.029718
0.0296767
0.0296316
0.0295829
0.0295305
0.0294744
0.0294146
0.0293511
0.0292839
0.029213
0.0291383
0.0290598
0.0289775
0.0288914
0.0288015
0.0287077
0.0286101
0.0285085
0.028403
0.0282935
0.0281801
0.0280627
0.0279413
0.0278159
0.0276864
0.0275528
0.0274152
0.0272734
0.0271275
0.0269776
0.0268234
0.0266652
0.0265028
0.0263362
0.0261655
0.0259907
0.0258117
0.0256286
0.0254413
0.02525
0.0250546
0.0248551
0.0246515
0.024444
0.0242325
0.0240171
0.0237977
0.0235745
0.0233475
0.0231167
0.0228823
0.0226442
0.0224025
0.0221573
0.0219087
0.0216568
0.0214016
0.0211432
0.0208817
0.0206172
0.0203497
0.0200795
0.0198066
0.0195311
0.0192531
0.0189727
0.0186901
0.0184053
0.0181185
0.0178298
0.0175394
0.0172473
0.0169537
0.0166587
0.0163625
0.0160652
0.015767
0.0154679
0.0151681
0.0148677
0.014567
0.014266
0.0139648
0.0136636
0.0133626
0.0130618
0.0127615
0.0124617
0.0121626
0.0118643
0.0115669
0.0112707
0.0109756
0.0106818
0.0103896
0.0100988
0.00980978
0.00952255
0.00923724
0.00895395
0.0086728
0.00839389
0.00811732
0.00784319
0.0075716
0.00730264
0.00703639
0.00677296
0.00651241
0.00625482
0.00600028
0.00574886
0.00550063
0.00525565
0.00501398
0.0047757
0.00454084
0.00430948
0.00408165
0.00385741
0.00363681
0.00341987
0.00320664
0.00299716
0.00279145
0.00258955
0.00239149
0.00219728
0.00200694
0.0018205
0.00163797
0.00145936
0.00128469
0.00111395
0.000947159
0.000784312
0.000625411
0.000470454
0.000319435
0.000172347
2.91796e-05
-0.000110078
-0.00024544
-0.000376922
-0.000504544
-0.000628324
-0.000748286
-0.000864454
-0.000976853
-0.00108551
-0.00119046
-0.00129173
-0.00138936
-0.00148337
-0.00157381
-0.00166072
-0.00174413
-0.00182408
-0.00190063
-0.0019738
-0.00204366
-0.00211024
-0.00217359
-0.00223376
-0.0022908
-0.00234477
-0.00239571
-0.00244368
-0.00248874
-0.00253093
-0.00257031
-0.00260694
-0.00264087
-0.00267217
-0.00270089
-0.00272708
-0.00275082
-0.00277215
-0.00279114
-0.00280783
-0.00282231
-0.00283461
-0.00284481
-0.00285296
-0.00285912
-0.00286335
-0.00286571
-0.00286625
-0.00286504
-0.00286213
-0.00285757
-0.00285143
-0.00284376
-0.00283461
-0.00282404
-0.0028121
-0.00279884
-0.00278432
-0.00276858
-0.00275168
-0.00273366
-0.00271458
-0.00269447
-0.00267339
-0.00265137
-0.00262847
-0.00260472
-0.00258016
-0.00255483
-0.00252878
-0.00250203
-0.00247462
-0.00244658
-0.00241796
-0.00238877
-0.00235905
-0.00232882
-0.00229811
-0.00226695
-0.00223535
-0.00220334
-0.00217094
-0.00213816
-0.00210501
-0.00207152
-0.00203768
-0.00200352
-0.00196903
-0.00193422
-0.00189908
-0.00186363
-0.00182785
-0.00179173
-0.00175526
-0.00171843
-0.00168123
-0.00164361
-0.00160557
-0.00156706
-0.00152804
-0.00148847
-0.0014483
-0.00140747
-0.00136591
-0.00132353
-0.00128026
-0.00123597
-0.00119057
-0.0011439
-0.00109584
-0.0010462
-0.000994807
-0.000941458
-0.00088594
-0.000828038
-0.000767556
-0.00070438
-0.000638285
-0.000568076
-0.000497321
-0.000458916
-0.00037235
0.0289208
0.0288679
0.0288378
0.0288478
0.0288822
0.0289338
0.0289976
0.0290689
0.0291439
0.0292199
0.0292949
0.0293673
0.0294363
0.0295013
0.0295618
0.0296176
0.0296687
0.029715
0.0297565
0.0297934
0.0298257
0.0298534
0.0298768
0.0298959
0.0299107
0.0299214
0.029928
0.0299307
0.0299294
0.0299242
0.0299152
0.0299024
0.0298859
0.0298656
0.0298416
0.0298139
0.0297826
0.0297476
0.029709
0.0296666
0.0296207
0.0295711
0.0295178
0.0294608
0.0294001
0.0293358
0.0292677
0.0291959
0.0291203
0.029041
0.0289578
0.0288709
0.0287801
0.0286854
0.0285869
0.0284844
0.028378
0.0282677
0.0281534
0.0280351
0.0279128
0.0277864
0.027656
0.0275215
0.0273829
0.0272402
0.0270934
0.0269424
0.0267874
0.0266281
0.0264647
0.0262972
0.0261255
0.0259497
0.0257697
0.0255856
0.0253973
0.025205
0.0250086
0.0248081
0.0246035
0.024395
0.0241825
0.023966
0.0237457
0.0235215
0.0232935
0.0230618
0.0228263
0.0225873
0.0223447
0.0220986
0.0218491
0.0215962
0.0213401
0.0210808
0.0208185
0.0205532
0.0202849
0.0200139
0.0197403
0.019464
0.0191853
0.0189043
0.018621
0.0183356
0.0180483
0.0177591
0.0174681
0.0171756
0.0168816
0.0165863
0.0162897
0.0159921
0.0156936
0.0153943
0.0150943
0.0147939
0.014493
0.0141919
0.0138908
0.0135897
0.0132887
0.0129881
0.012688
0.0123884
0.0120896
0.0117916
0.0114946
0.0111987
0.0109041
0.0106109
0.0103191
0.0100289
0.00974051
0.00945393
0.0091693
0.00888674
0.00860636
0.00832824
0.00805251
0.00777925
0.00750855
0.00724052
0.00697523
0.00671278
0.00645324
0.0061967
0.00594322
0.00569289
0.00544576
0.00520191
0.0049614
0.00472428
0.00449061
0.00426045
0.00403384
0.00381083
0.00359146
0.00337578
0.00316381
0.0029556
0.00275118
0.00255056
0.00235379
0.00216088
0.00197184
0.00178671
0.00160549
0.00142819
0.00125482
0.00108539
0.000919906
0.000758364
0.000600765
0.000447105
0.00029738
0.00015158
9.69531e-06
-0.000128286
-0.000262379
-0.000392601
-0.000518969
-0.000641506
-0.000760234
-0.000875178
-0.000986364
-0.00109382
-0.00119758
-0.00129767
-0.00139413
-0.001487
-0.0015763
-0.00166208
-0.00174438
-0.00182324
-0.00189871
-0.00197082
-0.00203963
-0.00210518
-0.00216751
-0.00222669
-0.00228276
-0.00233576
-0.00238576
-0.00243281
-0.00247696
-0.00251826
-0.00255678
-0.00259257
-0.00262568
-0.00265617
-0.0026841
-0.00270954
-0.00273253
-0.00275314
-0.00277142
-0.00278744
-0.00280125
-0.00281292
-0.0028225
-0.00283006
-0.00283565
-0.00283932
-0.00284115
-0.00284118
-0.00283948
-0.00283609
-0.00283109
-0.00282452
-0.00281644
-0.00280691
-0.00279597
-0.00278368
-0.00277009
-0.00275526
-0.00273924
-0.00272207
-0.0027038
-0.00268448
-0.00266415
-0.00264287
-0.00262067
-0.0025976
-0.0025737
-0.00254901
-0.00252356
-0.0024974
-0.00247056
-0.00244308
-0.00241498
-0.00238631
-0.00235709
-0.00232734
-0.00229711
-0.0022664
-0.00223525
-0.00220368
-0.0021717
-0.00213935
-0.00210662
-0.00207354
-0.00204012
-0.00200638
-0.00197231
-0.00193792