/*--------------------------------*- C++ -*----------------------------------*\
| =========                 |                                                 |
| \\      /  F ield         | OpenFOAM: The Open Source CFD Toolbox           |
|  \\    /   O peration     | Version:  2512                                  |
|   \\  /    A nd           | Website:  www.openfoam.com                      |
|    \\/     M anipulation  |                                                 |
\*---------------------------------------------------------------------------*/
FoamFile
{
    version     2.0;
    format      ascii;
    arch        "LSB;label=32;scalar=64";
    class       surfaceScalarField;
    location    "2775";
    object      phi;
}
// * * * * * * * * * * * * * * * * * * * * * * * * * * * * * * * * * * * * * //

dimensions      [0 3 -1 0 0 0 0];

oriented        oriented;

internalField   nonuniform List<scalar> 
137571
(
0.000298702
-2.28101e-05
0.000298562
-2.41423e-05
0.000298572
-2.45697e-05
0.000298623
-2.47571e-05
0.000298678
-2.48604e-05
0.000298726
-2.49264e-05
0.000298766
-2.4974e-05
0.0002988
-2.50113e-05
0.000298829
-2.50419e-05
0.000298854
-2.50679e-05
0.000298876
-2.50903e-05
0.000298897
-2.51098e-05
0.000298916
-2.51271e-05
0.000298934
-2.51424e-05
0.000298951
-2.51561e-05
0.000298967
-2.51683e-05
0.000298983
-2.51792e-05
0.000298998
-2.5189e-05
0.000299014
-2.51977e-05
0.000299029
-2.52055e-05
0.000299044
-2.52123e-05
0.000299059
-2.52184e-05
0.000299074
-2.52237e-05
0.000299089
-2.52282e-05
0.000299104
-2.52321e-05
0.000299119
-2.52353e-05
0.000299134
-2.52378e-05
0.00029915
-2.52397e-05
0.000299166
-2.5241e-05
0.000299182
-2.52417e-05
0.000299198
-2.52419e-05
0.000299214
-2.52415e-05
0.000299231
-2.52405e-05
0.000299248
-2.5239e-05
0.000299265
-2.5237e-05
0.000299283
-2.52344e-05
0.000299301
-2.52313e-05
0.000299319
-2.52277e-05
0.000299338
-2.52235e-05
0.000299357
-2.52189e-05
0.000299376
-2.52137e-05
0.000299396
-2.5208e-05
0.000299416
-2.52018e-05
0.000299437
-2.5195e-05
0.000299457
-2.51878e-05
0.000299479
-2.518e-05
0.0002995
-2.51717e-05
0.000299522
-2.51629e-05
0.000299545
-2.51535e-05
0.000299568
-2.51436e-05
0.000299591
-2.51332e-05
0.000299615
-2.51222e-05
0.000299639
-2.51107e-05
0.000299663
-2.50987e-05
0.000299688
-2.50861e-05
0.000299714
-2.5073e-05
0.00029974
-2.50593e-05
0.000299766
-2.5045e-05
0.000299793
-2.50302e-05
0.00029982
-2.50148e-05
0.000299847
-2.49988e-05
0.000299876
-2.49823e-05
0.000299904
-2.49652e-05
0.000299933
-2.49475e-05
0.000299962
-2.49292e-05
0.000299992
-2.49103e-05
0.000300022
-2.48908e-05
0.000300053
-2.48708e-05
0.000300084
-2.48501e-05
0.000300115
-2.48288e-05
0.000300147
-2.4807e-05
0.000300179
-2.47845e-05
0.000300212
-2.47614e-05
0.000300245
-2.47377e-05
0.000300278
-2.47134e-05
0.000300312
-2.46885e-05
0.000300346
-2.46629e-05
0.00030038
-2.46368e-05
0.000300415
-2.46101e-05
0.00030045
-2.45827e-05
0.000300485
-2.45547e-05
0.00030052
-2.45262e-05
0.000300556
-2.4497e-05
0.000300592
-2.44672e-05
0.000300628
-2.44369e-05
0.000300665
-2.44059e-05
0.000300701
-2.43744e-05
0.000300738
-2.43422e-05
0.000300775
-2.43095e-05
0.000300812
-2.42763e-05
0.000300849
-2.42424e-05
0.000300886
-2.42081e-05
0.000300923
-2.41731e-05
0.000300961
-2.41377e-05
0.000300998
-2.41017e-05
0.000301035
-2.40652e-05
0.000301072
-2.40282e-05
0.000301109
-2.39907e-05
0.000301146
-2.39528e-05
0.000301183
-2.39143e-05
0.00030122
-2.38754e-05
0.000301257
-2.38361e-05
0.000301293
-2.37964e-05
0.00030133
-2.37562e-05
0.000301366
-2.37157e-05
0.000301401
-2.36748e-05
0.000301437
-2.36335e-05
0.000301472
-2.35919e-05
0.000301507
-2.355e-05
0.000301541
-2.35078e-05
0.000301575
-2.34653e-05
0.000301609
-2.34225e-05
0.000301642
-2.33795e-05
0.000301675
-2.33362e-05
0.000301707
-2.32928e-05
0.000301739
-2.32491e-05
0.00030177
-2.32053e-05
0.000301801
-2.31614e-05
0.000301831
-2.31173e-05
0.000301861
-2.30732e-05
0.00030189
-2.30289e-05
0.000301918
-2.29846e-05
0.000301946
-2.29403e-05
0.000301973
-2.28959e-05
0.000302
-2.28516e-05
0.000302025
-2.28072e-05
0.000302051
-2.2763e-05
0.000302075
-2.27187e-05
0.000302099
-2.26746e-05
0.000302122
-2.26306e-05
0.000302144
-2.25867e-05
0.000302166
-2.2543e-05
0.000302187
-2.24994e-05
0.000302207
-2.2456e-05
0.000302226
-2.24129e-05
0.000302245
-2.23699e-05
0.000302262
-2.23272e-05
0.000302279
-2.22848e-05
0.000302296
-2.22426e-05
0.000302311
-2.22007e-05
0.000302326
-2.21592e-05
0.00030234
-2.21179e-05
0.000302353
-2.20771e-05
0.000302365
-2.20365e-05
0.000302377
-2.19964e-05
0.000302388
-2.19566e-05
0.000302398
-2.19173e-05
0.000302407
-2.18783e-05
0.000302416
-2.18398e-05
0.000302424
-2.18017e-05
0.000302431
-2.17641e-05
0.000302437
-2.17269e-05
0.000302443
-2.16903e-05
0.000302447
-2.16541e-05
0.000302451
-2.16184e-05
0.000302455
-2.15831e-05
0.000302457
-2.15485e-05
0.000302459
-2.15143e-05
0.000302461
-2.14806e-05
0.000302461
-2.14475e-05
0.000302461
-2.1415e-05
0.00030246
-2.1383e-05
0.000302459
-2.13515e-05
0.000302457
-2.13206e-05
0.000302454
-2.12902e-05
0.000302451
-2.12605e-05
0.000302447
-2.12313e-05
0.000302442
-2.12026e-05
0.000302437
-2.11746e-05
0.000302431
-2.11471e-05
0.000302425
-2.11203e-05
0.000302418
-2.1094e-05
0.00030241
-2.10683e-05
0.000302402
-2.10431e-05
0.000302393
-2.10186e-05
0.000302384
-2.09947e-05
0.000302375
-2.09713e-05
0.000302365
-2.09485e-05
0.000302354
-2.09264e-05
0.000302343
-2.09048e-05
0.000302331
-2.08838e-05
0.000302319
-2.08633e-05
0.000302307
-2.08435e-05
0.000302294
-2.08242e-05
0.000302281
-2.08055e-05
0.000302267
-2.07874e-05
0.000302253
-2.07699e-05
0.000302239
-2.07529e-05
0.000302224
-2.07365e-05
0.000302209
-2.07206e-05
0.000302193
-2.07053e-05
0.000302177
-2.06905e-05
0.000302161
-2.06763e-05
0.000302145
-2.06626e-05
0.000302128
-2.06495e-05
0.000302111
-2.06369e-05
0.000302094
-2.06248e-05
0.000302076
-2.06132e-05
0.000302058
-2.06021e-05
0.00030204
-2.05915e-05
0.000302022
-2.05814e-05
0.000302004
-2.05718e-05
0.000301985
-2.05627e-05
0.000301966
-2.05541e-05
0.000301948
-2.05459e-05
0.000301928
-2.05382e-05
0.000301909
-2.05309e-05
0.00030189
-2.05241e-05
0.00030187
-2.05177e-05
0.000301851
-2.05118e-05
0.000301831
-2.05062e-05
0.000301811
-2.05011e-05
0.000301791
-2.04964e-05
0.000301771
-2.04921e-05
0.000301751
-2.04881e-05
0.000301731
-2.04845e-05
0.000301711
-2.04813e-05
0.000301691
-2.04785e-05
0.000301671
-2.0476e-05
0.00030165
-2.04738e-05
0.00030163
-2.0472e-05
0.00030161
-2.04704e-05
0.00030159
-2.04692e-05
0.00030157
-2.04683e-05
0.00030155
-2.04677e-05
0.000301529
-2.04674e-05
0.000301509
-2.04674e-05
0.000301489
-2.04676e-05
0.000301469
-2.04681e-05
0.00030145
-2.04689e-05
0.00030143
-2.04698e-05
0.00030141
-2.04711e-05
0.00030139
-2.04725e-05
0.000301371
-2.04742e-05
0.000301351
-2.0476e-05
0.000301332
-2.04781e-05
0.000301312
-2.04804e-05
0.000301293
-2.04828e-05
0.000301274
-2.04854e-05
0.000301255
-2.04882e-05
0.000301236
-2.04912e-05
0.000301217
-2.04943e-05
0.000301199
-2.04976e-05
0.00030118
-2.0501e-05
0.000301162
-2.05045e-05
0.000301143
-2.05081e-05
0.000301125
-2.05119e-05
0.000301107
-2.05158e-05
0.000301089
-2.05198e-05
0.000301071
-2.05239e-05
0.000301054
-2.05281e-05
0.000301036
-2.05324e-05
0.000301019
-2.05368e-05
0.000301001
-2.05413e-05
0.000300984
-2.05458e-05
0.000300967
-2.05504e-05
0.00030095
-2.05551e-05
0.000300933
-2.05598e-05
0.000300916
-2.05646e-05
0.0003009
-2.05695e-05
0.000300883
-2.05744e-05
0.000300867
-2.05794e-05
0.00030085
-2.05844e-05
0.000300834
-2.05894e-05
0.000300818
-2.05945e-05
0.000300802
-2.05996e-05
0.000300786
-2.06048e-05
0.00030077
-2.061e-05
0.000300754
-2.06152e-05
0.000300738
-2.06205e-05
0.000300722
-2.06258e-05
0.000300707
-2.06311e-05
0.000300691
-2.06365e-05
0.000300675
-2.06419e-05
0.000300659
-2.06474e-05
0.000300644
-2.06528e-05
0.000300628
-2.06583e-05
0.000300612
-2.06639e-05
0.000300596
-2.06695e-05
0.00030058
-2.06751e-05
0.000300564
-2.06808e-05
0.000300547
-2.06865e-05
0.000300531
-2.06923e-05
0.000300514
-2.06982e-05
0.000300497
-2.07041e-05
0.000300479
-2.07101e-05
0.000300461
-2.07162e-05
0.000300443
-2.07223e-05
0.000300423
-2.07285e-05
0.000300403
-2.07348e-05
0.000300382
-2.07412e-05
0.00030036
-2.07477e-05
0.000300336
-2.07542e-05
0.000300309
-2.07607e-05
0.00030028
-2.07671e-05
0.000300245
-2.07732e-05
0.000300204
-2.07786e-05
0.000300152
-2.07823e-05
0.000300081
-2.07816e-05
-2.0773e-05
0.000298722
-2.22703e-05
0.00029828
-2.36998e-05
0.000298075
-2.43649e-05
0.000298006
-2.46886e-05
0.000298004
-2.48579e-05
0.000298031
-2.49538e-05
0.000298071
-2.5014e-05
0.000298116
-2.50558e-05
0.000298161
-2.50873e-05
0.000298206
-2.51125e-05
0.000298249
-2.51338e-05
0.000298292
-2.51521e-05
0.000298333
-2.51682e-05
0.000298373
-2.51826e-05
0.000298412
-2.51956e-05
0.000298451
-2.52072e-05
0.00029849
-2.52178e-05
0.000298528
-2.52274e-05
0.000298567
-2.52361e-05
0.000298605
-2.52439e-05
0.000298644
-2.5251e-05
0.000298683
-2.52574e-05
0.000298722
-2.5263e-05
0.000298762
-2.5268e-05
0.000298802
-2.52724e-05
0.000298843
-2.52761e-05
0.000298885
-2.52793e-05
0.000298927
-2.52819e-05
0.00029897
-2.52839e-05
0.000299013
-2.52854e-05
0.000299058
-2.52863e-05
0.000299103
-2.52867e-05
0.000299149
-2.52866e-05
0.000299196
-2.5286e-05
0.000299244
-2.52849e-05
0.000299293
-2.52833e-05
0.000299343
-2.52812e-05
0.000299394
-2.52785e-05
0.000299446
-2.52754e-05
0.000299498
-2.52718e-05
0.000299552
-2.52677e-05
0.000299608
-2.5263e-05
0.000299664
-2.52579e-05
0.000299721
-2.52523e-05
0.000299779
-2.52462e-05
0.000299839
-2.52396e-05
0.0002999
-2.52324e-05
0.000299962
-2.52248e-05
0.000300025
-2.52166e-05
0.000300089
-2.52079e-05
0.000300155
-2.51987e-05
0.000300221
-2.5189e-05
0.000300289
-2.51788e-05
0.000300359
-2.5168e-05
0.000300429
-2.51566e-05
0.000300501
-2.51447e-05
0.000300574
-2.51323e-05
0.000300648
-2.51193e-05
0.000300724
-2.51058e-05
0.000300801
-2.50916e-05
0.000300879
-2.50769e-05
0.000300958
-2.50617e-05
0.000301039
-2.50458e-05
0.000301121
-2.50294e-05
0.000301204
-2.50123e-05
0.000301289
-2.49947e-05
0.000301374
-2.49765e-05
0.000301461
-2.49576e-05
0.000301549
-2.49381e-05
0.000301638
-2.49181e-05
0.000301729
-2.48973e-05
0.00030182
-2.4876e-05
0.000301913
-2.4854e-05
0.000302007
-2.48314e-05
0.000302101
-2.48082e-05
0.000302197
-2.47843e-05
0.000302294
-2.47598e-05
0.000302392
-2.47346e-05
0.000302491
-2.47088e-05
0.00030259
-2.46824e-05
0.000302691
-2.46553e-05
0.000302792
-2.46275e-05
0.000302894
-2.45991e-05
0.000302997
-2.45701e-05
0.000303101
-2.45404e-05
0.000303205
-2.451e-05
0.00030331
-2.44791e-05
0.000303415
-2.44475e-05
0.000303521
-2.44152e-05
0.000303627
-2.43824e-05
0.000303733
-2.43489e-05
0.00030384
-2.43148e-05
0.000303947
-2.42801e-05
0.000304054
-2.42448e-05
0.000304161
-2.42089e-05
0.000304268
-2.41724e-05
0.000304375
-2.41354e-05
0.000304483
-2.40978e-05
0.000304589
-2.40596e-05
0.000304696
-2.4021e-05
0.000304802
-2.39817e-05
0.000304908
-2.3942e-05
0.000305014
-2.39018e-05
0.000305119
-2.38612e-05
0.000305223
-2.382e-05
0.000305327
-2.37784e-05
0.000305429
-2.37364e-05
0.000305532
-2.3694e-05
0.000305633
-2.36512e-05
0.000305733
-2.3608e-05
0.000305832
-2.35645e-05
0.00030593
-2.35206e-05
0.000306027
-2.34764e-05
0.000306123
-2.3432e-05
0.000306218
-2.33872e-05
0.000306311
-2.33423e-05
0.000306402
-2.32971e-05
0.000306493
-2.32517e-05
0.000306581
-2.32061e-05
0.000306669
-2.31603e-05
0.000306754
-2.31145e-05
0.000306838
-2.30685e-05
0.00030692
-2.30224e-05
0.000307001
-2.29763e-05
0.000307079
-2.29301e-05
0.000307156
-2.2884e-05
0.000307231
-2.28378e-05
0.000307304
-2.27916e-05
0.000307375
-2.27456e-05
0.000307444
-2.26995e-05
0.00030751
-2.26536e-05
0.000307575
-2.26078e-05
0.000307638
-2.25622e-05
0.000307699
-2.25167e-05
0.000307757
-2.24714e-05
0.000307814
-2.24263e-05
0.000307868
-2.23815e-05
0.00030792
-2.23368e-05
0.00030797
-2.22925e-05
0.000308018
-2.22484e-05
0.000308063
-2.22047e-05
0.000308107
-2.21613e-05
0.000308148
-2.21182e-05
0.000308187
-2.20754e-05
0.000308223
-2.20331e-05
0.000308258
-2.19911e-05
0.00030829
-2.19496e-05
0.00030832
-2.19084e-05
0.000308348
-2.18677e-05
0.000308374
-2.18275e-05
0.000308397
-2.17877e-05
0.000308419
-2.17484e-05
0.000308438
-2.17096e-05
0.000308455
-2.16712e-05
0.00030847
-2.16334e-05
0.000308483
-2.15961e-05
0.000308494
-2.15594e-05
0.000308503
-2.15232e-05
0.00030851
-2.14875e-05
0.000308515
-2.14524e-05
0.000308518
-2.14179e-05
0.000308519
-2.13839e-05
0.000308518
-2.13505e-05
0.000308515
-2.13177e-05
0.00030851
-2.12855e-05
0.000308503
-2.12538e-05
0.000308495
-2.12228e-05
0.000308485
-2.11924e-05
0.000308473
-2.11626e-05
0.000308459
-2.11334e-05
0.000308444
-2.11048e-05
0.000308426
-2.10768e-05
0.000308408
-2.10495e-05
0.000308387
-2.10228e-05
0.000308365
-2.09966e-05
0.000308342
-2.09712e-05
0.000308317
-2.09463e-05
0.00030829
-2.0922e-05
0.000308262
-2.08984e-05
0.000308233
-2.08754e-05
0.000308202
-2.0853e-05
0.00030817
-2.08313e-05
0.000308137
-2.08101e-05
0.000308102
-2.07896e-05
0.000308066
-2.07696e-05
0.000308029
-2.07503e-05
0.000307991
-2.07316e-05
0.000307952
-2.07135e-05
0.000307911
-2.06959e-05
0.000307869
-2.0679e-05
0.000307827
-2.06627e-05
0.000307783
-2.06469e-05
0.000307739
-2.06317e-05
0.000307693
-2.06171e-05
0.000307647
-2.06031e-05
0.0003076
-2.05896e-05
0.000307551
-2.05767e-05
0.000307503
-2.05643e-05
0.000307453
-2.05525e-05
0.000307403
-2.05412e-05
0.000307352
-2.05304e-05
0.0003073
-2.05202e-05
0.000307248
-2.05105e-05
0.000307195
-2.05013e-05
0.000307142
-2.04925e-05
0.000307088
-2.04843e-05
0.000307033
-2.04766e-05
0.000306979
-2.04693e-05
0.000306923
-2.04625e-05
0.000306868
-2.04562e-05
0.000306812
-2.04503e-05
0.000306755
-2.04448e-05
0.000306699
-2.04398e-05
0.000306642
-2.04352e-05
0.000306585
-2.0431e-05
0.000306528
-2.04273e-05
0.00030647
-2.04239e-05
0.000306413
-2.04209e-05
0.000306355
-2.04182e-05
0.000306297
-2.0416e-05
0.000306239
-2.04141e-05
0.000306181
-2.04125e-05
0.000306123
-2.04113e-05
0.000306066
-2.04104e-05
0.000306008
-2.04099e-05
0.00030595
-2.04096e-05
0.000305892
-2.04096e-05
0.000305834
-2.04099e-05
0.000305777
-2.04106e-05
0.000305719
-2.04114e-05
0.000305662
-2.04126e-05
0.000305605
-2.04139e-05
0.000305548
-2.04156e-05
0.000305491
-2.04174e-05
0.000305435
-2.04195e-05
0.000305379
-2.04218e-05
0.000305322
-2.04243e-05
0.000305267
-2.0427e-05
0.000305211
-2.04299e-05
0.000305156
-2.0433e-05
0.000305101
-2.04362e-05
0.000305046
-2.04396e-05
0.000304992
-2.04432e-05
0.000304938
-2.04469e-05
0.000304884
-2.04507e-05
0.000304831
-2.04547e-05
0.000304777
-2.04588e-05
0.000304725
-2.0463e-05
0.000304672
-2.04674e-05
0.00030462
-2.04718e-05
0.000304568
-2.04763e-05
0.000304517
-2.0481e-05
0.000304466
-2.04857e-05
0.000304415
-2.04905e-05
0.000304364
-2.04953e-05
0.000304314
-2.05003e-05
0.000304264
-2.05053e-05
0.000304215
-2.05103e-05
0.000304166
-2.05154e-05
0.000304117
-2.05206e-05
0.000304068
-2.05258e-05
0.00030402
-2.0531e-05
0.000303972
-2.05363e-05
0.000303924
-2.05416e-05
0.000303876
-2.05469e-05
0.000303829
-2.05523e-05
0.000303782
-2.05577e-05
0.000303735
-2.0563e-05
0.000303688
-2.05685e-05
0.000303641
-2.05739e-05
0.000303595
-2.05793e-05
0.000303548
-2.05847e-05
0.000303502
-2.05902e-05
0.000303456
-2.05956e-05
0.000303409
-2.0601e-05
0.000303363
-2.06064e-05
0.000303317
-2.06118e-05
0.00030327
-2.06172e-05
0.000303223
-2.06226e-05
0.000303176
-2.0628e-05
0.000303128
-2.06333e-05
0.00030308
-2.06386e-05
0.000303032
-2.06439e-05
0.000302983
-2.0649e-05
0.000302933
-2.06541e-05
0.000302882
-2.06591e-05
0.00030283
-2.0664e-05
0.000302776
-2.06687e-05
0.000302721
-2.06732e-05
0.000302663
-2.06773e-05
0.000302603
-2.0681e-05
0.00030254
-2.06842e-05
0.000302472
-2.06865e-05
0.000302399
-2.06876e-05
0.000302319
-2.06871e-05
0.00030223
-2.06841e-05
0.000302129
-2.06775e-05
0.000302012
-2.06657e-05
0.000301877
-2.06463e-05
-2.06216e-05
0.000298903
-2.1912e-05
0.000298431
-2.32278e-05
0.000298083
-2.40167e-05
0.00029787
-2.44752e-05
0.000297754
-2.47423e-05
0.000297702
-2.49018e-05
0.00029769
-2.50014e-05
0.000297701
-2.50671e-05
0.000297727
-2.51131e-05
0.000297762
-2.51473e-05
0.000297802
-2.51741e-05
0.000297846
-2.5196e-05
0.000297892
-2.52146e-05
0.00029794
-2.52307e-05
0.00029799
-2.5245e-05
0.00029804
-2.52578e-05
0.000298092
-2.52694e-05
0.000298144
-2.528e-05
0.000298198
-2.52896e-05
0.000298252
-2.52984e-05
0.000298308
-2.53065e-05
0.000298364
-2.53139e-05
0.000298422
-2.53207e-05
0.000298481
-2.53268e-05
0.000298541
-2.53324e-05
0.000298602
-2.53373e-05
0.000298665
-2.53418e-05
0.000298728
-2.53457e-05
0.000298794
-2.53491e-05
0.00029886
-2.5352e-05
0.000298928
-2.53544e-05
0.000298998
-2.53563e-05
0.000299069
-2.53577e-05
0.000299141
-2.53586e-05
0.000299216
-2.53591e-05
0.000299291
-2.53591e-05
0.000299369
-2.53586e-05
0.000299448
-2.53576e-05
0.000299529
-2.53562e-05
0.000299611
-2.53543e-05
0.000299696
-2.5352e-05
0.000299782
-2.53492e-05
0.00029987
-2.53459e-05
0.000299959
-2.53421e-05
0.000300051
-2.53378e-05
0.000300145
-2.53331e-05
0.00030024
-2.53279e-05
0.000300338
-2.53222e-05
0.000300437
-2.5316e-05
0.000300538
-2.53093e-05
0.000300641
-2.5302e-05
0.000300747
-2.52943e-05
0.000300854
-2.52861e-05
0.000300963
-2.52773e-05
0.000301075
-2.5268e-05
0.000301188
-2.52582e-05
0.000301304
-2.52478e-05
0.000301421
-2.52369e-05
0.000301541
-2.52254e-05
0.000301663
-2.52133e-05
0.000301786
-2.52007e-05
0.000301912
-2.51875e-05
0.00030204
-2.51737e-05
0.00030217
-2.51593e-05
0.000302302
-2.51443e-05
0.000302436
-2.51286e-05
0.000302572
-2.51124e-05
0.00030271
-2.50955e-05
0.00030285
-2.5078e-05
0.000302991
-2.50599e-05
0.000303135
-2.50411e-05
0.000303281
-2.50216e-05
0.000303428
-2.50015e-05
0.000303577
-2.49807e-05
0.000303728
-2.49592e-05
0.000303881
-2.4937e-05
0.000304035
-2.49142e-05
0.000304191
-2.48906e-05
0.000304349
-2.48664e-05
0.000304508
-2.48414e-05
0.000304669
-2.48157e-05
0.00030483
-2.47894e-05
0.000304994
-2.47623e-05
0.000305158
-2.47344e-05
0.000305323
-2.47059e-05
0.00030549
-2.46766e-05
0.000305658
-2.46467e-05
0.000305826
-2.4616e-05
0.000305995
-2.45845e-05
0.000306165
-2.45524e-05
0.000306336
-2.45196e-05
0.000306507
-2.4486e-05
0.000306679
-2.44517e-05
0.000306851
-2.44168e-05
0.000307023
-2.43811e-05
0.000307196
-2.43448e-05
0.000307368
-2.43078e-05
0.00030754
-2.42701e-05
0.000307712
-2.42318e-05
0.000307884
-2.41928e-05
0.000308056
-2.41532e-05
0.000308227
-2.41129e-05
0.000308397
-2.40721e-05
0.000308566
-2.40307e-05
0.000308735
-2.39887e-05
0.000308903
-2.39461e-05
0.000309069
-2.3903e-05
0.000309235
-2.38594e-05
0.000309399
-2.38153e-05
0.000309561
-2.37707e-05
0.000309722
-2.37256e-05
0.000309882
-2.36801e-05
0.00031004
-2.36342e-05
0.000310196
-2.35879e-05
0.00031035
-2.35412e-05
0.000310501
-2.34942e-05
0.000310651
-2.34468e-05
0.000310799
-2.33992e-05
0.000310944
-2.33513e-05
0.000311087
-2.33031e-05
0.000311227
-2.32548e-05
0.000311365
-2.32062e-05
0.0003115
-2.31575e-05
0.000311632
-2.31086e-05
0.000311762
-2.30596e-05
0.000311888
-2.30106e-05
0.000312012
-2.29615e-05
0.000312133
-2.29123e-05
0.00031225
-2.28632e-05
0.000312365
-2.2814e-05
0.000312476
-2.27649e-05
0.000312584
-2.27159e-05
0.000312689
-2.2667e-05
0.00031279
-2.26182e-05
0.000312889
-2.25696e-05
0.000312983
-2.25211e-05
0.000313075
-2.24728e-05
0.000313163
-2.24248e-05
0.000313247
-2.2377e-05
0.000313328
-2.23295e-05
0.000313406
-2.22822e-05
0.00031348
-2.22353e-05
0.00031355
-2.21887e-05
0.000313617
-2.21425e-05
0.000313681
-2.20966e-05
0.000313741
-2.20511e-05
0.000313798
-2.20061e-05
0.000313851
-2.19614e-05
0.0003139
-2.19172e-05
0.000313946
-2.18735e-05
0.000313989
-2.18303e-05
0.000314028
-2.17875e-05
0.000314063
-2.17453e-05
0.000314096
-2.17035e-05
0.000314125
-2.16623e-05
0.00031415
-2.16217e-05
0.000314172
-2.15816e-05
0.000314191
-2.15421e-05
0.000314207
-2.15031e-05
0.000314219
-2.14648e-05
0.000314229
-2.1427e-05
0.000314235
-2.13899e-05
0.000314237
-2.13534e-05
0.000314237
-2.13175e-05
0.000314234
-2.12822e-05
0.000314228
-2.12476e-05
0.000314219
-2.12136e-05
0.000314206
-2.11802e-05
0.000314191
-2.11476e-05
0.000314173
-2.11155e-05
0.000314153
-2.10841e-05
0.000314129
-2.10534e-05
0.000314103
-2.10234e-05
0.000314075
-2.0994e-05
0.000314043
-2.09653e-05
0.000314009
-2.09373e-05
0.000313973
-2.09099e-05
0.000313934
-2.08832e-05
0.000313893
-2.08572e-05
0.000313849
-2.08319e-05
0.000313804
-2.08072e-05
0.000313756
-2.07832e-05
0.000313705
-2.07599e-05
0.000313653
-2.07372e-05
0.000313599
-2.07152e-05
0.000313542
-2.06939e-05
0.000313484
-2.06732e-05
0.000313424
-2.06532e-05
0.000313361
-2.06338e-05
0.000313297
-2.06151e-05
0.000313232
-2.0597e-05
0.000313164
-2.05796e-05
0.000313095
-2.05628e-05
0.000313025
-2.05466e-05
0.000312953
-2.0531e-05
0.000312879
-2.05161e-05
0.000312804
-2.05018e-05
0.000312728
-2.04881e-05
0.000312651
-2.0475e-05
0.000312572
-2.04624e-05
0.000312492
-2.04505e-05
0.000312411
-2.04391e-05
0.000312329
-2.04283e-05
0.000312246
-2.04181e-05
0.000312161
-2.04084e-05
0.000312076
-2.03993e-05
0.000311991
-2.03907e-05
0.000311904
-2.03826e-05
0.000311816
-2.03751e-05
0.000311728
-2.03681e-05
0.00031164
-2.03615e-05
0.00031155
-2.03555e-05
0.00031146
-2.03499e-05
0.00031137
-2.03448e-05
0.000311279
-2.03402e-05
0.000311188
-2.0336e-05
0.000311096
-2.03323e-05
0.000311004
-2.03289e-05
0.000310912
-2.0326e-05
0.00031082
-2.03236e-05
0.000310727
-2.03215e-05
0.000310634
-2.03198e-05
0.000310541
-2.03185e-05
0.000310449
-2.03175e-05
0.000310356
-2.03169e-05
0.000310263
-2.03167e-05
0.00031017
-2.03168e-05
0.000310077
-2.03172e-05
0.000309984
-2.03179e-05
0.000309892
-2.03189e-05
0.000309799
-2.03202e-05
0.000309707
-2.03218e-05
0.000309615
-2.03237e-05
0.000309524
-2.03258e-05
0.000309432
-2.03282e-05
0.000309341
-2.03308e-05
0.000309251
-2.03336e-05
0.00030916
-2.03366e-05
0.00030907
-2.03399e-05
0.000308981
-2.03434e-05
0.000308891
-2.0347e-05
0.000308803
-2.03508e-05
0.000308714
-2.03548e-05
0.000308627
-2.0359e-05
0.000308539
-2.03633e-05
0.000308452
-2.03678e-05
0.000308366
-2.03724e-05
0.00030828
-2.03771e-05
0.000308194
-2.03819e-05
0.000308109
-2.03868e-05
0.000308025
-2.03919e-05
0.000307941
-2.0397e-05
0.000307857
-2.04022e-05
0.000307774
-2.04075e-05
0.000307692
-2.04129e-05
0.00030761
-2.04183e-05
0.000307529
-2.04238e-05
0.000307448
-2.04293e-05
0.000307367
-2.04349e-05
0.000307287
-2.04405e-05
0.000307207
-2.04462e-05
0.000307128
-2.04519e-05
0.00030705
-2.04576e-05
0.000306971
-2.04633e-05
0.000306893
-2.0469e-05
0.000306816
-2.04747e-05
0.000306739
-2.04804e-05
0.000306662
-2.04861e-05
0.000306585
-2.04918e-05
0.000306508
-2.04974e-05
0.000306432
-2.05031e-05
0.000306356
-2.05087e-05
0.00030628
-2.05142e-05
0.000306204
-2.05197e-05
0.000306128
-2.05251e-05
0.000306052
-2.05305e-05
0.000305976
-2.05358e-05
0.0003059
-2.0541e-05
0.000305824
-2.05461e-05
0.000305747
-2.0551e-05
0.000305669
-2.05558e-05
0.000305591
-2.05605e-05
0.000305512
-2.05649e-05
0.000305432
-2.05691e-05
0.000305351
-2.0573e-05
0.000305268
-2.05766e-05
0.000305184
-2.05797e-05
0.000305098
-2.05823e-05
0.000305009
-2.05842e-05
0.000304917
-2.05853e-05
0.000304821
-2.05852e-05
0.00030472
-2.05838e-05
0.000304614
-2.05805e-05
0.000304502
-2.05748e-05
0.00030438
-2.05659e-05
0.000304249
-2.05528e-05
0.000304106
-2.05345e-05
0.00030395
-2.05098e-05
0.000303783
-2.0479e-05
-2.04496e-05
0.000299021
-2.16714e-05
0.00029862
-2.28268e-05
0.000298244
-2.36411e-05
0.000297953
-2.41842e-05
0.000297749
-2.45386e-05
0.000297618
-2.47699e-05
0.000297539
-2.49231e-05
0.0002975
-2.50274e-05
0.000297487
-2.51006e-05
0.000297494
-2.51542e-05
0.000297515
-2.51948e-05
0.000297545
-2.52268e-05
0.000297584
-2.52529e-05
0.000297628
-2.52749e-05
0.000297677
-2.52939e-05
0.00029773
-2.53105e-05
0.000297786
-2.53254e-05
0.000297844
-2.53388e-05
0.000297906
-2.53511e-05
0.00029797
-2.53623e-05
0.000298036
-2.53727e-05
0.000298104
-2.53823e-05
0.000298175
-2.53912e-05
0.000298247
-2.53994e-05
0.000298322
-2.54071e-05
0.000298399
-2.54141e-05
0.000298478
-2.54207e-05
0.000298559
-2.54267e-05
0.000298642
-2.54322e-05
0.000298727
-2.54373e-05
0.000298815
-2.54418e-05
0.000298904
-2.54459e-05
0.000298996
-2.54496e-05
0.00029909
-2.54528e-05
0.000299187
-2.54555e-05
0.000299286
-2.54578e-05
0.000299387
-2.54597e-05
0.00029949
-2.54611e-05
0.000299596
-2.54621e-05
0.000299704
-2.54627e-05
0.000299815
-2.54628e-05
0.000299928
-2.54625e-05
0.000300044
-2.54617e-05
0.000300163
-2.54605e-05
0.000300283
-2.54588e-05
0.000300407
-2.54567e-05
0.000300533
-2.54541e-05
0.000300662
-2.5451e-05
0.000300794
-2.54475e-05
0.000300928
-2.54435e-05
0.000301065
-2.5439e-05
0.000301204
-2.5434e-05
0.000301347
-2.54285e-05
0.000301492
-2.54225e-05
0.00030164
-2.5416e-05
0.000301791
-2.5409e-05
0.000301945
-2.54014e-05
0.000302101
-2.53933e-05
0.00030226
-2.53846e-05
0.000302423
-2.53754e-05
0.000302587
-2.53656e-05
0.000302755
-2.53552e-05
0.000302926
-2.53442e-05
0.000303099
-2.53326e-05
0.000303275
-2.53204e-05
0.000303454
-2.53075e-05
0.000303636
-2.5294e-05
0.00030382
-2.52799e-05
0.000304007
-2.52651e-05
0.000304197
-2.52496e-05
0.000304389
-2.52334e-05
0.000304584
-2.52165e-05
0.000304781
-2.51989e-05
0.000304981
-2.51806e-05
0.000305183
-2.51615e-05
0.000305388
-2.51417e-05
0.000305595
-2.51212e-05
0.000305804
-2.50999e-05
0.000306016
-2.50778e-05
0.000306229
-2.50549e-05
0.000306445
-2.50312e-05
0.000306662
-2.50068e-05
0.000306881
-2.49815e-05
0.000307102
-2.49554e-05
0.000307325
-2.49285e-05
0.000307549
-2.49008e-05
0.000307775
-2.48723e-05
0.000308002
-2.48429e-05
0.00030823
-2.48127e-05
0.000308459
-2.47816e-05
0.000308689
-2.47497e-05
0.00030892
-2.4717e-05
0.000309152
-2.46834e-05
0.000309384
-2.46491e-05
0.000309617
-2.46138e-05
0.00030985
-2.45778e-05
0.000310083
-2.45409e-05
0.000310316
-2.45033e-05
0.000310549
-2.44648e-05
0.000310782
-2.44255e-05
0.000311014
-2.43855e-05
0.000311246
-2.43447e-05
0.000311477
-2.43031e-05
0.000311707
-2.42608e-05
0.000311937
-2.42178e-05
0.000312165
-2.41741e-05
0.000312391
-2.41296e-05
0.000312616
-2.40845e-05
0.00031284
-2.40388e-05
0.000313062
-2.39924e-05
0.000313281
-2.39454e-05
0.000313499
-2.38979e-05
0.000313715
-2.38498e-05
0.000313928
-2.38011e-05
0.000314139
-2.37519e-05
0.000314347
-2.37023e-05
0.000314552
-2.36522e-05
0.000314755
-2.36017e-05
0.000314954
-2.35508e-05
0.000315151
-2.34995e-05
0.000315344
-2.34479e-05
0.000315533
-2.3396e-05
0.00031572
-2.33438e-05
0.000315902
-2.32913e-05
0.000316081
-2.32387e-05
0.000316257
-2.31858e-05
0.000316428
-2.31328e-05
0.000316595
-2.30797e-05
0.000316759
-2.30266e-05
0.000316918
-2.29733e-05
0.000317073
-2.292e-05
0.000317224
-2.28668e-05
0.000317371
-2.28135e-05
0.000317513
-2.27604e-05
0.000317651
-2.27073e-05
0.000317784
-2.26544e-05
0.000317913
-2.26016e-05
0.000318037
-2.2549e-05
0.000318156
-2.24966e-05
0.000318271
-2.24445e-05
0.000318382
-2.23926e-05
0.000318487
-2.2341e-05
0.000318588
-2.22897e-05
0.000318685
-2.22388e-05
0.000318776
-2.21882e-05
0.000318863
-2.2138e-05
0.000318945
-2.20883e-05
0.000319023
-2.20389e-05
0.000319096
-2.199e-05
0.000319164
-2.19416e-05
0.000319227
-2.18937e-05
0.000319286
-2.18463e-05
0.00031934
-2.17994e-05
0.00031939
-2.17531e-05
0.000319435
-2.17073e-05
0.000319475
-2.16621e-05
0.000319511
-2.16175e-05
0.000319542
-2.15735e-05
0.000319569
-2.15301e-05
0.000319592
-2.14874e-05
0.00031961
-2.14453e-05
0.000319624
-2.14038e-05
0.000319634
-2.1363e-05
0.000319639
-2.13229e-05
0.000319641
-2.12835e-05
0.000319638
-2.12447e-05
0.000319631
-2.12067e-05
0.00031962
-2.11693e-05
0.000319605
-2.11327e-05
0.000319586
-2.10968e-05
0.000319564
-2.10616e-05
0.000319537
-2.10271e-05
0.000319507
-2.09934e-05
0.000319474
-2.09603e-05
0.000319436
-2.09281e-05
0.000319396
-2.08965e-05
0.000319351
-2.08657e-05
0.000319304
-2.08356e-05
0.000319253
-2.08063e-05
0.000319199
-2.07777e-05
0.000319141
-2.07499e-05
0.000319081
-2.07228e-05
0.000319018
-2.06964e-05
0.000318951
-2.06708e-05
0.000318882
-2.06459e-05
0.00031881
-2.06218e-05
0.000318735
-2.05983e-05
0.000318657
-2.05756e-05
0.000318577
-2.05537e-05
0.000318495
-2.05324e-05
0.000318409
-2.05119e-05
0.000318322
-2.04921e-05
0.000318232
-2.0473e-05
0.00031814
-2.04546e-05
0.000318046
-2.04369e-05
0.00031795
-2.04199e-05
0.000317852
-2.04036e-05
0.000317752
-2.0388e-05
0.00031765
-2.0373e-05
0.000317546
-2.03587e-05
0.000317441
-2.03451e-05
0.000317334
-2.03321e-05
0.000317225
-2.03197e-05
0.000317115
-2.0308e-05
0.000317003
-2.02969e-05
0.000316891
-2.02865e-05
0.000316776
-2.02766e-05
0.000316661
-2.02674e-05
0.000316545
-2.02587e-05
0.000316427
-2.02506e-05
0.000316309
-2.02431e-05
0.00031619
-2.02362e-05
0.00031607
-2.02297e-05
0.000315949
-2.02239e-05
0.000315827
-2.02185e-05
0.000315705
-2.02137e-05
0.000315582
-2.02094e-05
0.000315458
-2.02055e-05
0.000315335
-2.02022e-05
0.00031521
-2.01993e-05
0.000315086
-2.01969e-05
0.000314961
-2.01949e-05
0.000314836
-2.01934e-05
0.00031471
-2.01922e-05
0.000314585
-2.01915e-05
0.00031446
-2.01912e-05
0.000314334
-2.01913e-05
0.000314209
-2.01917e-05
0.000314083
-2.01925e-05
0.000313958
-2.01936e-05
0.000313833
-2.01951e-05
0.000313708
-2.01969e-05
0.000313583
-2.0199e-05
0.000313459
-2.02014e-05
0.000313335
-2.0204e-05
0.000313211
-2.0207e-05
0.000313088
-2.02102e-05
0.000312965
-2.02137e-05
0.000312842
-2.02174e-05
0.00031272
-2.02213e-05
0.000312598
-2.02254e-05
0.000312477
-2.02298e-05
0.000312357
-2.02343e-05
0.000312237
-2.0239e-05
0.000312117
-2.02439e-05
0.000311999
-2.0249e-05
0.00031188
-2.02541e-05
0.000311763
-2.02595e-05
0.000311646
-2.02649e-05
0.00031153
-2.02705e-05
0.000311414
-2.02762e-05
0.000311299
-2.02819e-05
0.000311184
-2.02878e-05
0.000311071
-2.02938e-05
0.000310957
-2.02998e-05
0.000310845
-2.03058e-05
0.000310733
-2.0312e-05
0.000310622
-2.03181e-05
0.000310511
-2.03243e-05
0.000310401
-2.03305e-05
0.000310292
-2.03368e-05
0.000310183
-2.0343e-05
0.000310075
-2.03493e-05
0.000309967
-2.03555e-05
0.00030986
-2.03617e-05
0.000309753
-2.03679e-05
0.000309647
-2.03741e-05
0.000309541
-2.03802e-05
0.000309435
-2.03862e-05
0.00030933
-2.03922e-05
0.000309225
-2.03981e-05
0.00030912
-2.0404e-05
0.000309016
-2.04097e-05
0.000308912
-2.04153e-05
0.000308807
-2.04208e-05