/*--------------------------------*- C++ -*----------------------------------*\
| =========                 |                                                 |
| \\      /  F ield         | OpenFOAM: The Open Source CFD Toolbox           |
|  \\    /   O peration     | Version:  2512                                  |
|   \\  /    A nd           | Website:  www.openfoam.com                      |
|    \\/     M anipulation  |                                                 |
\*---------------------------------------------------------------------------*/
FoamFile
{
    version     2.0;
    format      ascii;
    arch        "LSB;label=32;scalar=64";
    class       volSymmTensorField;
    location    "2775";
    object      turbulenceProperties:devReff;
}
// * * * * * * * * * * * * * * * * * * * * * * * * * * * * * * * * * * * * * //

dimensions      [0 2 -2 0 0 0 0];

internalField   nonuniform List<symmTensor> 
66422
(
(-0.000922164 0.00384748 -0 0.0027264 -0 -0.00180423)
(-0.0022249 0.00189754 -0 0.00500224 -0 -0.00277734)
(-0.00296177 0.00132523 -0 0.00592453 -0 -0.00296276)
(-0.00320942 0.00115017 -0 0.00628804 -0 -0.00307862)
(-0.00328843 0.00106578 -0 0.00646042 -0 -0.00317199)
(-0.00333273 0.000998262 -0 0.00656827 -0 -0.00323553)
(-0.00336319 0.000938345 -0 0.00664512 -0 -0.00328193)
(-0.00338634 0.00088515 -0 0.00670456 -0 -0.00331821)
(-0.00340569 0.000837622 -0 0.00675324 -0 -0.00334755)
(-0.00342263 0.000794681 -0 0.00679452 -0 -0.00337188)
(-0.00343776 0.000755399 -0 0.00683024 -0 -0.00339248)
(-0.00345138 0.000719 -0 0.00686157 -0 -0.0034102)
(-0.0034637 0.000684851 -0 0.00688931 -0 -0.0034256)
(-0.00347489 0.000652448 -0 0.006914 -0 -0.00343911)
(-0.00348504 0.000621387 -0 0.00693607 -0 -0.00345103)
(-0.00349427 0.000591342 -0 0.00695585 -0 -0.00346158)
(-0.00350264 0.000562053 -0 0.00697359 -0 -0.00347095)
(-0.00351023 0.000533307 -0 0.00698949 -0 -0.00347926)
(-0.00351709 0.000504929 -0 0.00700373 -0 -0.00348664)
(-0.00352327 0.000476774 -0 0.00701643 -0 -0.00349315)
(-0.00352881 0.000448722 -0 0.0070277 -0 -0.00349888)
(-0.00353375 0.000420669 -0 0.00703764 -0 -0.00350389)
(-0.00353811 0.000392529 -0 0.00704633 -0 -0.00350822)
(-0.00354192 0.000364227 -0 0.00705384 -0 -0.00351191)
(-0.0035452 0.000335699 -0 0.00706021 -0 -0.00351501)
(-0.00354798 0.000306887 -0 0.0070655 -0 -0.00351752)
(-0.00355026 0.000277742 -0 0.00706975 -0 -0.00351949)
(-0.00355206 0.00024822 -0 0.00707299 -0 -0.00352093)
(-0.00355339 0.000218281 -0 0.00707525 -0 -0.00352186)
(-0.00355427 0.000187889 -0 0.00707656 -0 -0.00352229)
(-0.0035547 0.000157013 -0 0.00707693 -0 -0.00352224)
(-0.00355468 0.000125622 -0 0.0070764 -0 -0.00352171)
(-0.00355424 9.36902e-05 -0 0.00707496 -0 -0.00352072)
(-0.00355336 6.11917e-05 -0 0.00707264 -0 -0.00351928)
(-0.00355206 2.81035e-05 -0 0.00706944 -0 -0.00351738)
(-0.00355033 -5.59599e-06 -0 0.00706537 -0 -0.00351504)
(-0.00354819 -3.99271e-05 -0 0.00706045 -0 -0.00351226)
(-0.00354563 -7.49089e-05 -0 0.00705467 -0 -0.00350904)
(-0.00354266 -0.000110559 -0 0.00704804 -0 -0.00350538)
(-0.00353927 -0.000146895 -0 0.00704056 -0 -0.00350129)
(-0.00353546 -0.000183933 -0 0.00703224 -0 -0.00349677)
(-0.00353124 -0.000221687 -0 0.00702307 -0 -0.00349182)
(-0.00352661 -0.000260172 -0 0.00701305 -0 -0.00348644)
(-0.00352156 -0.000299402 -0 0.00700219 -0 -0.00348063)
(-0.00351609 -0.000339389 -0 0.00699047 -0 -0.00347439)
(-0.0035102 -0.000380146 -0 0.00697791 -0 -0.00346771)
(-0.00350388 -0.000421684 -0 0.00696449 -0 -0.0034606)
(-0.00349715 -0.000464014 -0 0.00695021 -0 -0.00345306)
(-0.00348998 -0.000507145 -0 0.00693506 -0 -0.00344508)
(-0.00348239 -0.000551087 -0 0.00691905 -0 -0.00343665)
(-0.00347437 -0.000595849 -0 0.00690216 -0 -0.00342779)
(-0.00346591 -0.000641437 -0 0.00688439 -0 -0.00341849)
(-0.00345701 -0.00068786 -0 0.00686574 -0 -0.00340874)
(-0.00344766 -0.000735123 -0 0.0068462 -0 -0.00339854)
(-0.00343788 -0.000783231 -0 0.00682576 -0 -0.00338789)
(-0.00342764 -0.00083219 -0 0.00680442 -0 -0.00337678)
(-0.00341694 -0.000882001 -0 0.00678216 -0 -0.00336522)
(-0.00340579 -0.000932669 -0 0.00675899 -0 -0.0033532)
(-0.00339418 -0.000984195 -0 0.00673489 -0 -0.00334071)
(-0.00338211 -0.00103658 -0 0.00670987 -0 -0.00332776)
(-0.00336956 -0.00108982 -0 0.0066839 -0 -0.00331434)
(-0.00335654 -0.00114392 -0 0.006657 -0 -0.00330045)
(-0.00334305 -0.00119887 -0 0.00662914 -0 -0.00328609)
(-0.00332907 -0.00125468 -0 0.00660032 -0 -0.00327125)
(-0.00331461 -0.00131133 -0 0.00657054 -0 -0.00325594)
(-0.00329966 -0.00136882 -0 0.0065398 -0 -0.00324014)
(-0.00328422 -0.00142714 -0 0.00650808 -0 -0.00322386)
(-0.00326828 -0.00148628 -0 0.00647537 -0 -0.00320709)
(-0.00325185 -0.00154624 -0 0.00644169 -0 -0.00318984)
(-0.00323492 -0.001607 -0 0.00640701 -0 -0.0031721)
(-0.00321748 -0.00166854 -0 0.00637134 -0 -0.00315387)
(-0.00319953 -0.00173087 -0 0.00633468 -0 -0.00313514)
(-0.00318108 -0.00179395 -0 0.00629701 -0 -0.00311593)
(-0.00316212 -0.00185778 -0 0.00625834 -0 -0.00309622)
(-0.00314264 -0.00192233 -0 0.00621866 -0 -0.00307603)
(-0.00312265 -0.00198758 -0 0.00617798 -0 -0.00305533)
(-0.00310214 -0.00205352 -0 0.00613629 -0 -0.00303415)
(-0.00308112 -0.00212011 -0 0.0060936 -0 -0.00301248)
(-0.00305958 -0.00218735 -0 0.0060499 -0 -0.00299031)
(-0.00303753 -0.00225519 -0 0.00600519 -0 -0.00296766)
(-0.00301496 -0.00232361 -0 0.00595948 -0 -0.00294452)
(-0.00299187 -0.00239258 -0 0.00591277 -0 -0.0029209)
(-0.00296827 -0.00246208 -0 0.00586507 -0 -0.00289679)
(-0.00294416 -0.00253207 -0 0.00581637 -0 -0.00287221)
(-0.00291954 -0.00260252 -0 0.00576669 -0 -0.00284715)
(-0.00289441 -0.00267339 -0 0.00571604 -0 -0.00282162)
(-0.00286878 -0.00274464 -0 0.00566441 -0 -0.00279563)
(-0.00284265 -0.00281625 -0 0.00561182 -0 -0.00276917)
(-0.00281602 -0.00288817 -0 0.00555828 -0 -0.00274226)
(-0.0027889 -0.00296036 -0 0.0055038 -0 -0.0027149)
(-0.00276129 -0.00303277 -0 0.00544839 -0 -0.0026871)
(-0.00273321 -0.00310538 -0 0.00539207 -0 -0.00265886)
(-0.00270465 -0.00317814 -0 0.00533485 -0 -0.0026302)
(-0.00267563 -0.00325099 -0 0.00527674 -0 -0.00260111)
(-0.00264614 -0.0033239 -0 0.00521776 -0 -0.00257161)
(-0.00261621 -0.00339683 -0 0.00515792 -0 -0.00254171)
(-0.00258584 -0.00346971 -0 0.00509725 -0 -0.00251141)
(-0.00255503 -0.00354252 -0 0.00503577 -0 -0.00248074)
(-0.0025238 -0.0036152 -1.28696e-37 0.00497349 -0 -0.00244969)
(-0.00249217 -0.0036877 2.84518e-35 0.00491044 -2.4821e-36 -0.00241827)
(-0.00246013 -0.00375997 -2.81945e-35 0.00484664 2.4821e-36 -0.00238651)
(-0.0024277 -0.00383197 -1.28695e-37 0.00478211 -0 -0.00235441)
(-0.00239489 -0.00390365 -0 0.00471688 -0 -0.00232198)
(-0.00236172 -0.00397495 -0 0.00465097 -0 -0.00228924)
(-0.00232821 -0.00404584 -0 0.0045844 -0 -0.0022562)
(-0.00229435 -0.00411625 -0 0.00451722 -0 -0.00222287)
(-0.00226017 -0.00418615 -0 0.00444944 -0 -0.00218927)
(-0.00222569 -0.00425548 -0 0.00438109 -0 -0.00215541)
(-0.00219091 -0.0043242 -0 0.00431221 -0 -0.0021213)
(-0.00215585 -0.00439226 -0 0.00424282 -0 -0.00208697)
(-0.00212053 -0.00445962 -0 0.00417295 -0 -0.00205242)
(-0.00208497 -0.00452622 -0 0.00410264 -0 -0.00201767)
(-0.00204918 -0.00459202 -0 0.00403192 -0 -0.00198274)
(-0.00201317 -0.00465699 -0 0.00396081 -0 -0.00194764)
(-0.00197698 -0.00472106 -0 0.00388937 -0 -0.00191239)
(-0.0019406 -0.00478421 -0 0.00381761 -0 -0.00187701)
(-0.00190407 -0.0048464 -0 0.00374557 -0 -0.0018415)
(-0.00186739 -0.00490757 -0 0.00367329 -0 -0.0018059)
(-0.00183059 -0.00496771 -0 0.0036008 -0 -0.00177021)
(-0.00179368 -0.00502675 -0 0.00352813 -0 -0.00173445)
(-0.00175669 -0.00508468 -0 0.00345533 -0 -0.00169864)
(-0.00171963 -0.00514146 -0 0.00338242 -0 -0.00166279)
(-0.00168251 -0.00519705 -0 0.00330944 -0 -0.00162693)
(-0.00164537 -0.00525142 -0 0.00323643 -0 -0.00159106)
(-0.00160821 -0.00530454 -0 0.00316342 -0 -0.00155521)
(-0.00157105 -0.00535639 -0 0.00309044 -0 -0.00151939)
(-0.00153392 -0.00540694 -0 0.00301754 -0 -0.00148362)
(-0.00149683 -0.00545616 -0 0.00294474 -0 -0.00144791)
(-0.00145979 -0.00550402 -0 0.00287208 -0 -0.00141229)
(-0.00142283 -0.00555052 -0 0.00279959 -0 -0.00137676)
(-0.00138597 -0.00559562 -0 0.00272731 -0 -0.00134134)
(-0.00134921 -0.00563931 -0 0.00265527 -0 -0.00130606)
(-0.00131259 -0.00568157 -0 0.0025835 -0 -0.00127091)
(-0.00127611 -0.00572239 -0 0.00251204 -0 -0.00123593)
(-0.00123979 -0.00576174 -0 0.00244091 -0 -0.00120112)
(-0.00120365 -0.00579963 -0 0.00237015 -0 -0.0011665)
(-0.0011677 -0.00583604 -0 0.00229978 -0 -0.00113208)
(-0.00113196 -0.00587097 -0 0.00222984 -0 -0.00109788)
(-0.00109645 -0.00590439 -0 0.00216036 -0 -0.00106391)
(-0.00106118 -0.00593631 -0 0.00209136 -0 -0.00103018)
(-0.00102616 -0.00596673 -0 0.00202287 -0 -0.000996715)
(-0.000991408 -0.00599564 -0 0.00195492 -0 -0.000963515)
(-0.00095694 -0.00602304 -0 0.00188754 -0 -0.000930599)
(-0.000922767 -0.00604892 -0 0.00182074 -0 -0.000897976)
(-0.000888903 -0.0060733 -0 0.00175456 -0 -0.000865659)
(-0.000855359 -0.00609617 -0 0.00168902 -0 -0.000833659)
(-0.000822148 -0.00611753 -0 0.00162414 -0 -0.000801987)
(-0.000789282 -0.0061374 -0 0.00155994 -0 -0.000770653)
(-0.000756772 -0.00615577 -0 0.00149644 -0 -0.000739667)
(-0.000724628 -0.00617266 -0 0.00143367 -0 -0.000709039)
(-0.00069286 -0.00618807 -0 0.00137164 -0 -0.000678778)
(-0.000661479 -0.00620201 -0 0.00131037 -0 -0.000648892)
(-0.000630494 -0.00621449 -0 0.00124989 -0 -0.000619391)
(-0.000599914 -0.00622553 -0 0.0011902 -0 -0.000590283)
(-0.000569747 -0.00623513 -0 0.00113132 -0 -0.000561573)
(-0.000540001 -0.00624331 -0 0.00107327 -0 -0.000533271)
(-0.000510684 -0.00625008 -0 0.00101607 -0 -0.000505383)
(-0.000481802 -0.00625546 -0 0.000959718 -0 -0.000477915)
(-0.000453364 -0.00625946 -0 0.000904238 -0 -0.000450874)
(-0.000425375 -0.0062621 -0 0.000849639 -0 -0.000424264)
(-0.00039784 -0.00626338 -0 0.000795932 -0 -0.000398092)
(-0.000370766 -0.00626334 -0 0.000743127 -0 -0.000372361)
(-0.000344157 -0.00626199 -0 0.000691235 -0 -0.000347077)
(-0.000318019 -0.00625934 -0 0.000640263 -0 -0.000322244)
(-0.000292355 -0.00625542 -0 0.00059022 -0 -0.000297866)
(-0.000267169 -0.00625024 -0 0.000541114 -0 -0.000273945)
(-0.000242464 -0.00624383 -0 0.000492949 -0 -0.000250485)
(-0.000218245 -0.00623619 -0 0.000445734 -0 -0.000227489)
(-0.000194512 -0.00622737 -0 0.000399472 -0 -0.000204959)
(-0.00017127 -0.00621736 -0 0.000354167 -0 -0.000182897)
(-0.00014852 -0.00620621 -0 0.000309825 -0 -0.000161305)
(-0.000126263 -0.00619392 -0 0.000266447 -0 -0.000140184)
(-0.000104501 -0.00618051 -0 0.000224037 -0 -0.000119535)
(-8.32357e-05 -0.00616602 -0 0.000182595 -0 -9.93595e-05)
(-6.24665e-05 -0.00615046 -0 0.000142124 -0 -7.96572e-05)
(-4.21943e-05 -0.00613386 -0 0.000102623 -0 -6.04285e-05)
(-2.24191e-05 -0.00611624 -0 6.40924e-05 -0 -4.16733e-05)
(-3.14072e-06 -0.00609761 -0 2.65318e-05 -0 -2.3391e-05)
(1.56415e-05 -0.00607801 -0 -1.00604e-05 -0 -5.58109e-06)
(3.39283e-05 -0.00605746 -0 -4.56858e-05 -0 1.17575e-05)
(5.17208e-05 -0.00603598 -0 -8.0347e-05 -0 2.86261e-05)
(6.90205e-05 -0.00601359 -0 -0.000114047 -0 4.50262e-05)
(8.58291e-05 -0.00599032 -0 -0.000146789 -0 6.09596e-05)
(0.000102148 -0.00596619 -0 -0.000178577 -0 7.64283e-05)
(0.000117981 -0.00594122 -0 -0.000209415 -0 9.14346e-05)
(0.000133329 -0.00591544 -0 -0.00023931 -0 0.000105981)
(0.000148195 -0.00588888 -0 -0.000268265 -0 0.00012007)
(0.000162582 -0.00586156 -0 -0.000296288 -0 0.000133706)
(0.000176493 -0.00583349 -0 -0.000323384 -0 0.00014689)
(0.000189933 -0.00580471 -0 -0.00034956 -0 0.000159627)
(0.000202904 -0.00577524 -0 -0.000374824 -0 0.00017192)
(0.00021541 -0.00574511 -0 -0.000399183 -0 0.000183774)
(0.000227455 -0.00571433 -0 -0.000422647 -0 0.000195191)
(0.000239044 -0.00568294 -0 -0.000445222 -0 0.000206178)
(0.000250182 -0.00565095 -0 -0.000466919 -0 0.000216737)
(0.000260873 -0.00561839 -0 -0.000487746 -0 0.000226873)
(0.000271121 -0.00558528 -0 -0.000507713 -0 0.000236592)
(0.000280932 -0.00555165 -0 -0.000526831 -0 0.000245899)
(0.000290312 -0.00551753 -0 -0.00054511 -0 0.000254798)
(0.000299266 -0.00548293 -0 -0.000562561 -0 0.000263295)
(0.000307799 -0.00544788 -0 -0.000579195 -0 0.000271396)
(0.000315917 -0.0054124 -0 -0.000595022 -0 0.000279105)
(0.000323627 -0.00537652 -0 -0.000610056 -0 0.00028643)
(0.000330933 -0.00534026 -0 -0.000624308 -0 0.000293375)
(0.000337844 -0.00530364 -0 -0.000637791 -0 0.000299947)
(0.000344364 -0.00526668 -0 -0.000650517 -0 0.000306153)
(0.000350501 -0.00522941 -0 -0.000662498 -0 0.000311997)
(0.000356261 -0.00519185 -0 -0.000673749 -0 0.000317487)
(0.000361652 -0.00515402 -0 -0.000684282 -0 0.00032263)
(0.000366679 -0.00511594 -0 -0.00069411 -0 0.000327431)
(0.00037135 -0.00507764 -0 -0.000703248 -0 0.000331898)
(0.000375672 -0.00503914 -0 -0.00071171 -0 0.000336037)
(0.000379653 -0.00500045 -0 -0.000719508 -0 0.000339856)
(0.000383299 -0.00496159 -0 -0.000726659 -0 0.00034336)
(0.000386618 -0.00492259 -0 -0.000733175 -0 0.000346558)
(0.000389617 -0.00488347 -0 -0.000739072 -0 0.000349455)
(0.000392304 -0.00484425 -0 -0.000744363 -0 0.000352059)
(0.000394687 -0.00480493 -0 -0.000749065 -0 0.000354378)
(0.000396772 -0.00476555 -0 -0.00075319 -0 0.000356418)
(0.000398568 -0.00472612 -0 -0.000756754 -0 0.000358186)
(0.000400082 -0.00468666 -0 -0.000759772 -0 0.00035969)
(0.000401322 -0.00464718 -0 -0.000762258 -0 0.000360936)
(0.000402295 -0.00460771 -0 -0.000764227 -0 0.000361932)
(0.00040301 -0.00456825 -0 -0.000765695 -0 0.000362685)
(0.000403473 -0.00452882 -0 -0.000766675 -0 0.000363202)
(0.000403693 -0.00448944 -0 -0.000767183 -0 0.000363491)
(0.000403676 -0.00445012 -0 -0.000767233 -0 0.000363557)
(0.000403431 -0.00441088 -0 -0.00076684 -0 0.000363409)
(0.000402965 -0.00437173 -0 -0.000766018 -0 0.000363052)
(0.000402286 -0.00433267 -0 -0.000764781 -0 0.000362495)
(0.000401401 -0.00429374 -0 -0.000763144 -0 0.000361744)
(0.000400317 -0.00425492 -0 -0.000761122 -0 0.000360805)
(0.000399041 -0.00421625 -0 -0.000758727 -0 0.000359686)
(0.000397581 -0.00417772 -0 -0.000755974 -0 0.000358392)
(0.000395945 -0.00413935 -0 -0.000752876 -0 0.000356931)
(0.000394138 -0.00410114 -0 -0.000749447 -0 0.000355309)
(0.000392168 -0.00406311 -0 -0.0007457 -0 0.000353532)
(0.000390042 -0.00402527 -0 -0.000741648 -0 0.000351606)
(0.000387766 -0.00398761 -0 -0.000737304 -0 0.000349538)
(0.000385347 -0.00395015 -0 -0.000732681 -0 0.000347334)
(0.000382792 -0.0039129 -0 -0.000727791 -0 0.000344999)
(0.000380107 -0.00387585 -0 -0.000722645 -0 0.000342539)
(0.000377297 -0.00383902 -0 -0.000717257 -0 0.00033996)
(0.00037437 -0.00380241 -0 -0.000711637 -0 0.000337267)
(0.000371331 -0.00376602 -0 -0.000705796 -0 0.000334465)
(0.000368186 -0.00372986 -0 -0.000699746 -0 0.000331561)
(0.00036494 -0.00369393 -0 -0.000693498 -0 0.000328558)
(0.0003616 -0.00365823 -0 -0.000687061 -0 0.000325462)
(0.000358169 -0.00362277 -0 -0.000680446 -0 0.000322277)
(0.000354655 -0.00358754 -0 -0.000673663 -0 0.000319008)
(0.000351061 -0.00355255 -0 -0.00066672 -0 0.00031566)
(0.000347392 -0.00351779 -0 -0.000659628 -0 0.000312236)
(0.000343653 -0.00348326 -0 -0.000652395 -0 0.000308741)
(0.00033985 -0.00344897 -0 -0.000645028 -0 0.000305179)
(0.000335985 -0.0034149 -0 -0.000637537 -0 0.000301553)
(0.000332063 -0.00338107 -0 -0.000629929 -0 0.000297866)
(0.000328089 -0.00334746 -0 -0.000622211 -0 0.000294123)
(0.000324065 -0.00331407 -0 -0.000614391 -0 0.000290326)
(0.000319997 -0.0032809 -0 -0.000606474 -0 0.000286477)
(0.000315886 -0.00324793 -0 -0.000598467 -0 0.000282581)
(0.000311737 -0.00321517 -0 -0.000590376 -0 0.000278639)
(0.000307552 -0.00318261 -0 -0.000582205 -0 0.000274654)
(0.000303334 -0.00315024 -0 -0.000573961 -0 0.000270627)
(0.000299087 -0.00311804 -0 -0.000565647 -0 0.00026656)
(0.000294812 -0.00308602 -0 -0.000557268 -0 0.000262456)
(0.000290513 -0.00305416 -0 -0.000548827 -0 0.000258315)
(0.00028619 -0.00302244 -0 -0.000540328 -0 0.000254138)
(0.000281847 -0.00299087 -0 -0.000531773 -0 0.000249926)
(0.000277485 -0.00295941 -0 -0.000523165 -0 0.00024568)
(0.000273105 -0.00292806 -0 -0.000514504 -0 0.000241399)
(0.00026871 -0.0028968 -0 -0.000505794 -0 0.000237084)
(0.0002643 -0.00286561 -0 -0.000497034 -0 0.000232733)
(0.000259877 -0.00283447 -0 -0.000488224 -0 0.000228347)
(0.000255442 -0.00280335 -0 -0.000479366 -0 0.000223924)
(0.000250995 -0.00277224 -0 -0.000470456 -0 0.000219461)
(0.000246538 -0.0027411 -0 -0.000461496 -0 0.000214958)
(0.000242072 -0.00270991 -0 -0.000452482 -0 0.00021041)
(0.000237597 -0.00267862 -0 -0.000443412 -0 0.000205815)
(0.000233115 -0.0026472 -0 -0.000434283 -0 0.000201168)
(0.000228627 -0.00261561 -0 -0.000425092 -0 0.000196466)
(0.000224134 -0.00258378 -0 -0.000415836 -0 0.000191702)
(0.000219639 -0.00255167 -0 -0.000406509 -0 0.00018687)
(0.000215146 -0.00251921 -0 -0.000397108 -0 0.000181961)
(0.000210659 -0.00248632 -0 -0.000387627 -0 0.000176969)
(0.000206184 -0.0024529 -0 -0.000378065 -0 0.00017188)
(0.000201732 -0.00241884 -0 -0.000368416 -0 0.000166684)
(0.000197315 -0.00238401 -0 -0.000358679 -0 0.000161364)
(0.000192953 -0.00234825 -0 -0.000348856 -0 0.000155903)
(0.000188676 -0.00231134 -0 -0.000338952 -0 0.000150277)
(0.000184525 -0.00227304 -0 -0.000328982 -0 0.000144457)
(0.000180565 -0.00223302 -0 -0.000318973 -0 0.000138408)
(0.000176896 -0.00219086 -0 -0.000308974 -0 0.000132078)
(0.000173678 -0.00214597 -0 -0.000299077 -0 0.000125399)
(0.000171182 -0.00209758 -0 -0.000289448 -0 0.000118266)
(0.000169872 -0.0020446 -0 -0.000280388 -0 0.000110517)
(0.000170437 -0.0019854 -0 -0.000272378 -0 0.000101941)
(0.000174243 -0.00191796 -0 -0.000266333 -0 9.20895e-05)
(0.000188187 -0.00184032 -0 -0.00026629 -0 7.81027e-05)
(0.000222085 -0.00174427 -0 -0.00027954 -0 5.74554e-05)
(0.000181043 -0.00161822 -0 -0.000262322 -0 8.1279e-05)
(0.0012242 0.00244024 -0 -0.00144545 -0 0.000221244)
(0.00133707 0.00101547 -0 -0.00169212 -0 0.000355051)
(0.000887164 0.000563625 -0 -0.00136205 -0 0.000474884)
(0.000642821 0.000509255 -0 -0.00115408 -0 0.000511256)
(0.000532382 0.00052945 -0 -0.00105978 -0 0.000527396)
(0.000484235 0.000555119 -0 -0.00102331 -0 0.000539077)
(0.000467046 0.000572617 -0 -0.00101456 -0 0.000547515)
(0.000464402 0.000580158 -0 -0.00101814 -0 0.000553738)
(0.00046776 0.000579635 -0 -0.00102642 -0 0.000558656)
(0.000473206 0.000573372 -0 -0.00103592 -0 0.000562714)
(0.000479027 0.000563166 -0 -0.00104517 -0 0.000566145)
(0.000484492 0.000550253 -0 -0.00105359 -0 0.000569095)
(0.000489325 0.000535449 -0 -0.00106099 -0 0.000571665)
(0.000493458 0.00051928 -0 -0.00106738 -0 0.000573923)
(0.00049691 0.000502082 -0 -0.00107283 -0 0.000575919)
(0.000499738 0.000484069 -0 -0.00107743 -0 0.00057769)
(0.000502006 0.000465378 -0 -0.00108127 -0 0.000579265)
(0.000503775 0.00044609 -0 -0.00108444 -0 0.000580666)
(0.000505105 0.000426257 -0 -0.00108701 -0 0.00058191)
(0.000506043 0.000405907 -0 -0.00108906 -0 0.000583013)
(0.000506634 0.000385054 -0 -0.00109062 -0 0.000583985)
(0.000506913 0.000363704 -0 -0.00109175 -0 0.000584837)
(0.000506911 0.000341853 -0 -0.00109249 -0 0.000585576)
(0.000506654 0.000319497 -0 -0.00109286 -0 0.000586209)
(0.000506164 0.000296627 -0 -0.00109291 -0 0.000586742)
(0.00050546 0.000273234 -0 -0.00109264 -0 0.00058718)
(0.000504558 0.000249305 -0 -0.00109208 -0 0.000587526)
(0.00050347 0.00022483 -0 -0.00109125 -0 0.000587785)
(0.000502209 0.000199795 -0 -0.00109017 -0 0.000587958)
(0.000500784 0.000174189 -0 -0.00108883 -0 0.000588048)
(0.000499203 0.000147999 -0 -0.00108726 -0 0.000588058)
(0.000497474 0.000121212 -0 -0.00108546 -0 0.000587989)
(0.000495603 9.38171e-05 -0 -0.00108345 -0 0.000587842)
(0.000493595 6.58013e-05 -0 -0.00108122 -0 0.00058762)
(0.000491456 3.71531e-05 -0 -0.00107878 -0 0.000587323)
(0.000489188 7.86053e-06 -0 -0.00107614 -0 0.000586951)
(0.000486796 -2.20877e-05 -0 -0.0010733 -0 0.000586506)
(0.000484283 -5.27029e-05 -0 -0.00107027 -0 0.000585988)
(0.000481651 -8.39961e-05 -0 -0.00106705 -0 0.000585398)
(0.000478904 -0.000115978 -0 -0.00106364 -0 0.000584736)
(0.000476043 -0.000148659 -0 -0.00106004 -0 0.000584002)
(0.00047307 -0.00018205 -0 -0.00105627 -0 0.000583196)
(0.000469988 -0.000216159 -0 -0.00105231 -0 0.000582318)
(0.000466799 -0.000250998 -0 -0.00104817 -0 0.000581369)
(0.000463503 -0.000286575 -0 -0.00104385 -0 0.000580347)
(0.000460103 -0.000322899 -0 -0.00103936 -0 0.000579254)
(0.0004566 -0.000359978 -0 -0.00103469 -0 0.000578088)
(0.000452997 -0.000397821 -0 -0.00102985 -0 0.00057685)
(0.000449293 -0.000436436 -0 -0.00102483 -0 0.00057554)
(0.000445492 -0.000475828 -0 -0.00101965 -0 0.000574156)
(0.000441595 -0.000516007 -0 -0.00101429 -0 0.000572698)
(0.000437602 -0.000556977 -0 -0.00100877 -0 0.000571167)
(0.000433517 -0.000598744 -0 -0.00100308 -0 0.000569561)
(0.000429341 -0.000641313 -0 -0.000997221 -0 0.00056788)
(0.000425076 -0.000684689 -0 -0.0009912 -0 0.000566124)
(0.000420723 -0.000728876 -0 -0.000985016 -0 0.000564293)
(0.000416285 -0.000773876 -0 -0.00097867 -0 0.000562385)
(0.000411764 -0.000819693 -0 -0.000972165 -0 0.000560401)
(0.000407163 -0.000866327 -0 -0.000965502 -0 0.000558339)
(0.000402483 -0.00091378 -0 -0.000958683 -0 0.0005562)
(0.000397727 -0.000962051 -0 -0.000951709 -0 0.000553983)
(0.000392897 -0.00101114 -0 -0.000944584 -0 0.000551687)
(0.000387998 -0.00106104 -0 -0.000937309 -0 0.000549312)
(0.00038303 -0.00111176 -0 -0.000929887 -0 0.000546857)
(0.000377998 -0.00116329 -0 -0.00092232 -0 0.000544322)
(0.000372904 -0.00121562 -0 -0.000914612 -0 0.000541707)
(0.000367752 -0.00126874 -0 -0.000906764 -0 0.000539012)
(0.000362545 -0.00132266 -0 -0.00089878 -0 0.000536235)
(0.000357287 -0.00137736 -0 -0.000890664 -0 0.000533377)
(0.000351981 -0.00143284 -0 -0.000882418 -0 0.000530437)
(0.00034663 -0.00148908 -0 -0.000874046 -0 0.000527415)
(0.00034124 -0.00154607 -0 -0.000865552 -0 0.000524311)
(0.000335814 -0.00160379 -0 -0.000856939 -0 0.000521125)
(0.000330355 -0.00166225 -0 -0.000848212 -0 0.000517856)
(0.000324869 -0.0017214 -0 -0.000839374 -0 0.000514505)
(0.000319359 -0.00178125 -0 -0.00083043 -0 0.000511071)
(0.00031383 -0.00184178 -0 -0.000821385 -0 0.000507555)
(0.000308286 -0.00190295 -0 -0.000812242 -0 0.000503957)
(0.000302732 -0.00196476 -0 -0.000803007 -0 0.000500276)
(0.000297172 -0.00202718 -0 -0.000793685 -0 0.000496513)
(0.000291611 -0.00209018 -0 -0.000784279 -0 0.000492668)
(0.000286053 -0.00215375 -0 -0.000774796 -0 0.000488743)
(0.000280504 -0.00221785 -0 -0.00076524 -0 0.000484736)
(0.000274967 -0.00228245 -0 -0.000755616 -0 0.000480649)
(0.000269448 -0.00234754 -0 -0.00074593 -0 0.000476482)
(0.000263952 -0.00241307 -0 -0.000736187 -0 0.000472236)
(0.000258482 -0.00247902 -0 -0.000726393 -0 0.000467911)
(0.000253043 -0.00254535 -0 -0.000716552 -0 0.000463509)
(0.00024764 -0.00261204 -0 -0.000706671 -0 0.000459031)
(0.000242278 -0.00267903 -0 -0.000696754 -0 0.000454476)
(0.00023696 -0.00274631 -0 -0.000686808 -0 0.000449847)
(0.000231692 -0.00281383 -0 -0.000676836 -0 0.000445144)
(0.000226477 -0.00288155 -0 -0.000666846 -0 0.00044037)
(0.000221319 -0.00294943 -0 -0.000656843 -0 0.000435524)
(0.000216222 -0.00301744 -0 -0.00064683 -0 0.000430609)
(0.00021119 -0.00308554 -0 -0.000636815 -0 0.000425625)
(0.000206227 -0.00315367 -0 -0.000626802 -0 0.000420575)
(0.000201336 -0.00322181 -0 -0.000616796 -0 0.000415461)
(0.00019652 -0.0032899 -0 -0.000606803 -0 0.000410283)
(0.000191782 -0.0033579 -0 -0.000596826 1.28696e-37 0.000405044)
(0.000187126 -0.00342578 -0 -0.000586872 -1.28695e-37 0.000399746)
(0.000182554 -0.00349348 -0 -0.000576944 -0 0.00039439)
(0.000178069 -0.00356097 -0 -0.000567047 -0 0.000388978)
(0.000173672 -0.00362819 -0 -0.000557186 -0 0.000383514)
(0.000169366 -0.0036951 -0 -0.000547365 -0 0.000377998)
(0.000165154 -0.00376167 -0 -0.000537588 -0 0.000372434)
(0.000161035 -0.00382784 -0 -0.000527858 -0 0.000366823)
(0.000157012 -0.00389356 -0 -0.000518181 -0 0.000361168)
(0.000153087 -0.00395881 -0 -0.000508558 -0 0.000355471)
(0.000149259 -0.00402353 -0 -0.000498995 -0 0.000349735)
(0.00014553 -0.00408767 -0 -0.000489493 -0 0.000343963)
(0.000141901 -0.0041512 -0 -0.000480057 -0 0.000338156)
(0.000138371 -0.00421408 -0 -0.000470689 -0 0.000332318)
(0.000134941 -0.00427626 -0 -0.000461392 -0 0.000326451)
(0.00013161 -0.0043377 -0 -0.000452168 -0 0.000320558)
(0.000128379 -0.00439836 -0 -0.000443021 -0 0.000314642)
(0.000125247 -0.00445821 -0 -0.000433952 -0 0.000308705)
(0.000122214 -0.00451721 -0 -0.000424963 -0 0.00030275)
(0.000119277 -0.00457531 -0 -0.000416057 -0 0.00029678)
(0.000116438 -0.00463248 -0 -0.000407235 -0 0.000290798)
(0.000113693 -0.0046887 -0 -0.0003985 -0 0.000284806)
(0.000111043 -0.00474392 -0 -0.000389851 -0 0.000278808)
(0.000108486 -0.00479811 -0 -0.000381292 -0 0.000272807)
(0.00010602 -0.00485124 -0 -0.000372823 -0 0.000266804)
(0.000103643 -0.00490328 -0 -0.000364446 -0 0.000260803)
(0.000101354 -0.00495421 -0 -0.000356161 -0 0.000254807)
(9.91513e-05 -0.005004 -0 -0.00034797 -0 0.000248818)
(9.70327e-05 -0.00505261 -0 -0.000339873 -0 0.00024284)
(9.49963e-05 -0.00510004 -0 -0.000331871 -0 0.000236874)
(9.304e-05 -0.00514624 -0 -0.000323965 -0 0.000230925)
(9.11618e-05 -0.00519122 -0 -0.000316155 -0 0.000224993)
(8.93596e-05 -0.00523493 -0 -0.000308442 -0 0.000219083)
(8.76312e-05 -0.00527737 -0 -0.000300827 -0 0.000213196)
(8.59744e-05 -0.00531852 -0 -0.00029331 -0 0.000207335)
(8.43873e-05 -0.00535836 -0 -0.00028589 -0 0.000201503)
(8.28674e-05 -0.00539688 -0 -0.00027857 -0 0.000195702)
(8.14128e-05 -0.00543406 -0 -0.000271348 -0 0.000189935)
(8.00213e-05 -0.00546991 -0 -0.000264225 -0 0.000184204)
(7.86907e-05 -0.00550439 -0 -0.000257202 -0 0.000178511)
(7.7419e-05 -0.00553752 -0 -0.000250277 -0 0.000172858)
(7.62041e-05 -0.00556927 -0 -0.000243453 -0 0.000167249)
(7.50439e-05 -0.00559965 -0 -0.000236728 -0 0.000161684)
(7.39366e-05 -0.00562865 -0 -0.000230102 -0 0.000156166)
(7.28801e-05 -0.00565627 -0 -0.000223577 -0 0.000150697)
(7.18726e-05 -0.0056825 -0 -0.000217151 -0 0.000145279)
(7.09122e-05 -0.00570735 -0 -0.000210826 -0 0.000139914)
(6.99973e-05 -0.00573081 -0 -0.0002046 -0 0.000134603)
(6.9126e-05 -0.00575289 -0 -0.000198475 -0 0.000129349)
(6.82967e-05 -0.00577359 -0 -0.00019245 -0 0.000124153)
(6.75078e-05 -0.00579292 -0 -0.000186524 -0 0.000119017)
(6.67577e-05 -0.00581087 -0 -0.000180699 -0 0.000113942)
(6.60451e-05 -0.00582746 -0 -0.000174975 -0 0.000108929)
(6.53683e-05 -0.00584268 -0 -0.00016935 -0 0.000103981)
(6.47262e-05 -0.00585656 -0 -0.000163825 -0 9.9099e-05)
(6.41173e-05 -0.00586909 -0 -0.000158401 -0 9.42833e-05)
(6.35405e-05 -0.00588029 -0 -0.000153076 -0 8.95357e-05)
(6.29944e-05 -0.00589017 -0 -0.000147852 -0 8.48573e-05)
(6.2478e-05 -0.00589873 -0 -0.000142727 -0 8.02492e-05)
(6.19902e-05 -0.00590599 -0 -0.000137703 -0 7.57124e-05)
(6.15299e-05 -0.00591197 -0 -0.000132778 -0 7.12479e-05)
(6.1096e-05 -0.00591667 -0 -0.000127953 -0 6.68565e-05)
(6.06876e-05 -0.0059201 -0 -0.000123227 -0 6.25391e-05)
(6.03038e-05 -0.00592229 -0 -0.0001186 -0 5.82965e-05)
(5.99437e-05 -0.00592325 -0 -0.000114073 -0 5.41293e-05)
(5.96064e-05 -0.00592299 -0 -0.000109644 -0 5.00381e-05)
(5.9291e-05 -0.00592153 -0 -0.000105315 -0 4.60237e-05)
(5.89967e-05 -0.00591888 -0 -0.000101083 -0 4.20864e-05)
(5.87228e-05 -0.00591507 -0 -9.69495e-05 -0 3.82267e-05)
(5.84685e-05 -0.0059101 -0 -9.29136e-05 -0 3.44451e-05)
(5.8233e-05 -0.005904 -0 -8.89749e-05 -0 3.07419e-05)
(5.80156e-05 -0.00589679 -0 -8.51329e-05 -0 2.71173e-05)
(5.78155e-05 -0.00588847 -0 -8.13873e-05 -0 2.35717e-05)
(5.76321e-05 -0.00587908 -0 -7.77373e-05 -0 2.01052e-05)
(5.74646e-05 -0.00586863 -0 -7.41826e-05 -0 1.67179e-05)
(5.73124e-05 -0.00585714 -0 -7.07223e-05 -0 1.341e-05)
(5.71746e-05 -0.00584462 -0 -6.7356e-05 -0 1.01814e-05)
(5.70507e-05 -0.00583111 -0 -6.40828e-05 -0 7.03206e-06)
(5.694e-05 -0.00581661 -0 -6.0902e-05 -0 3.96202e-06)
(5.68416e-05 -0.00580116 -0 -5.78128e-05 -0 9.71121e-07)
(5.67551e-05 -0.00578476 -0 -5.48143e-05 -0 -1.9408e-06)
(5.66795e-05 -0.00576745 -0 -5.19056e-05 -0 -4.77395e-06)
(5.66144e-05 -0.00574923 -0 -4.90858e-05 -0 -7.52859e-06)
(5.65588e-05 -0.00573014 -0 -4.63538e-05 -0 -1.0205e-05)
(5.65123e-05 -0.00571019 -0 -4.37087e-05 -0 -1.28035e-05)
(5.64739e-05 -0.0056894 -0 -4.11494e-05 -0 -1.53245e-05)
(5.64431e-05 -0.00566781 -0 -3.86746e-05 -0 -1.77685e-05)
(5.64191e-05 -0.00564542 -0 -3.62833e-05 -0 -2.01358e-05)
(5.64013e-05 -0.00562226 -0 -3.39743e-05 -0 -2.2427e-05)
(5.63888e-05 -0.00559835 -0 -3.17462e-05 -0 -2.46426e-05)
(5.63811e-05 -0.00557371 -0 -2.95979e-05 -0 -2.67832e-05)
(5.63773e-05 -0.00554837 -0 -2.7528e-05 -0 -2.88493e-05)
(5.63768e-05 -0.00552235 -0 -2.55351e-05 -0 -3.08418e-05)
(5.6379e-05 -0.00549567 -0 -2.36179e-05 -0 -3.27611e-05)
(5.63831e-05 -0.00546834 -0 -2.1775e-05 -0 -3.46081e-05)
(5.63884e-05 -0.00544041 -0 -2.0005e-05 -0 -3.63834e-05)
(5.63943e-05 -0.00541187 -0 -1.83064e-05 -0 -3.80879e-05)
(5.64002e-05 -0.00538277 -0 -1.66778e-05 -0 -3.97223e-05)
(5.64054e-05 -0.00535311 -0 -1.51178e-05 -0 -4.12876e-05)
(5.64093e-05 -0.00532293 -0 -1.36248e-05 -0 -4.27845e-05)
(5.64112e-05 -0.00529224 -0 -1.21973e-05 -0 -4.42139e-05)
(5.64108e-05 -0.00526107 -0 -1.08339e-05 -0 -4.55768e-05)
(5.64073e-05 -0.00522943 -0 -9.53314e-06 -0 -4.68742e-05)
(5.64003e-05 -0.00519736 -0 -8.29344e-06 -0 -4.81069e-05)
(5.63893e-05 -0.00516486 -0 -7.11335e-06 -0 -4.92759e-05)
(5.63737e-05 -0.00513197 -0 -5.99141e-06 -0 -5.03823e-05)
(5.63533e-05 -0.00509869 -0 -4.92614e-06 -0 -5.14272e-05)
(5.63276e-05 -0.00506507 -0 -3.91608e-06 -0 -5.24115e-05)
(5.62961e-05 -0.00503111 -0 -2.95982e-06 -0 -5.33363e-05)
(5.62587e-05 -0.00499683 -0 -2.05592e-06 -0 -5.42027e-05)
(5.62149e-05 -0.00496227 -0 -1.203e-06 -0 -5.50119e-05)
(5.61646e-05 -0.00492743 -0 -3.99665e-07 -0 -5.57649e-05)
(5.61075e-05 -0.00489233 -0 3.55419e-07 -0 -5.64629e-05)
(5.60434e-05 -0.00485701 -0 1.06358e-06 -0 -5.7107e-05)
(5.59722e-05 -0.00482147 -0 1.72611e-06 -0 -5.76983e-05)
(5.58939e-05 -0.00478573 -0 2.34427e-06 -0 -5.82381e-05)
(5.58082e-05 -0.00474982 -0 2.91931e-06 -0 -5.87276e-05)