/*--------------------------------*- C++ -*----------------------------------*\
| =========                 |                                                 |
| \\      /  F ield         | OpenFOAM: The Open Source CFD Toolbox           |
|  \\    /   O peration     | Version:  2512                                  |
|   \\  /    A nd           | Website:  www.openfoam.com                      |
|    \\/     M anipulation  |                                                 |
\*---------------------------------------------------------------------------*/
FoamFile
{
    version     2.0;
    format      ascii;
    arch        "LSB;label=32;scalar=64";
    class       volVectorField;
    location    "2775";
    object      U;
}
// * * * * * * * * * * * * * * * * * * * * * * * * * * * * * * * * * * * * * //

dimensions      [0 1 -1 0 0 0 0];

internalField   nonuniform List<vector> 
66422
(
(0.299071 -0.0237257 0)
(0.298587 -0.025468 0)
(0.298519 -0.025997 0)
(0.298586 -0.0262227 0)
(0.298649 -0.0263604 0)
(0.298702 -0.0264577 0)
(0.298747 -0.0265314 0)
(0.298784 -0.0265899 0)
(0.298815 -0.0266378 0)
(0.298842 -0.0266781 0)
(0.298866 -0.0267124 0)
(0.298887 -0.0267421 0)
(0.298907 -0.026768 0)
(0.298925 -0.0267908 0)
(0.298942 -0.026811 0)
(0.298959 -0.0268289 0)
(0.298975 -0.0268447 0)
(0.298991 -0.0268589 0)
(0.299006 -0.0268714 0)
(0.299021 -0.0268825 0)
(0.299036 -0.0268922 0)
(0.299051 -0.0269007 0)
(0.299066 -0.0269081 0)
(0.299081 -0.0269144 0)
(0.299096 -0.0269197 0)
(0.299111 -0.026924 0)
(0.299127 -0.0269274 0)
(0.299142 -0.0269298 0)
(0.299158 -0.0269314 0)
(0.299174 -0.0269322 0)
(0.29919 -0.0269321 0)
(0.299206 -0.0269312 0)
(0.299223 -0.0269296 0)
(0.29924 -0.0269271 0)
(0.299257 -0.0269239 0)
(0.299274 -0.02692 0)
(0.299292 -0.0269153 0)
(0.29931 -0.0269098 0)
(0.299329 -0.0269036 0)
(0.299347 -0.0268967 0)
(0.299367 -0.026889 0)
(0.299386 -0.0268806 0)
(0.299406 -0.0268715 0)
(0.299426 -0.0268616 0)
(0.299447 -0.026851 0)
(0.299468 -0.0268396 0)
(0.299489 -0.0268275 0)
(0.299511 -0.0268147 0)
(0.299533 -0.0268012 0)
(0.299556 -0.0267868 0)
(0.299579 -0.0267718 0)
(0.299603 -0.026756 0)
(0.299627 -0.0267394 0)
(0.299651 -0.026722 0)
(0.299676 -0.0267039 0)
(0.299701 -0.026685 0)
(0.299727 -0.0266653 0)
(0.299753 -0.0266449 0)
(0.299779 -0.0266237 0)
(0.299806 -0.0266016 0)
(0.299834 -0.0265788 0)
(0.299861 -0.0265552 0)
(0.29989 -0.0265307 0)
(0.299918 -0.0265055 0)
(0.299947 -0.0264794 0)
(0.299977 -0.0264525 0)
(0.300007 -0.0264248 0)
(0.300037 -0.0263963 0)
(0.300068 -0.0263669 0)
(0.300099 -0.0263367 0)
(0.300131 -0.0263057 0)
(0.300163 -0.0262738 0)
(0.300195 -0.0262411 0)
(0.300228 -0.0262075 0)
(0.300261 -0.0261732 0)
(0.300295 -0.0261379 0)
(0.300329 -0.0261019 0)
(0.300363 -0.0260649 0)
(0.300397 -0.0260272 0)
(0.300432 -0.0259886 0)
(0.300467 -0.0259492 0)
(0.300502 -0.025909 0)
(0.300538 -0.0258679 0)
(0.300574 -0.0258261 0)
(0.30061 -0.0257834 0)
(0.300646 -0.0257399 0)
(0.300683 -0.0256956 0)
(0.300719 -0.0256506 0)
(0.300756 -0.0256047 0)
(0.300793 -0.0255581 0)
(0.30083 -0.0255108 0)
(0.300867 -0.0254627 0)
(0.300905 -0.0254138 0)
(0.300942 -0.0253643 0)
(0.300979 -0.025314 0)
(0.301016 -0.0252631 0)
(0.301054 -0.0252114 0)
(0.301091 -0.0251592 0)
(0.301128 -0.0251062 0)
(0.301165 -0.0250527 2.57391e-37)
(0.301202 -0.0249986 -2.57389e-37)
(0.301239 -0.0249439 0)
(0.301275 -0.0248886 0)
(0.301311 -0.0248328 0)
(0.301348 -0.0247765 0)
(0.301383 -0.0247197 0)
(0.301419 -0.0246624 0)
(0.301454 -0.0246047 0)
(0.301489 -0.0245466 0)
(0.301524 -0.0244881 0)
(0.301558 -0.0244292 0)
(0.301592 -0.02437 0)
(0.301626 -0.0243104 0)
(0.301659 -0.0242506 0)
(0.301691 -0.0241905 0)
(0.301723 -0.0241302 0)
(0.301755 -0.0240697 0)
(0.301786 -0.024009 0)
(0.301816 -0.0239481 0)
(0.301846 -0.0238872 0)
(0.301875 -0.0238261 0)
(0.301904 -0.023765 0)
(0.301932 -0.0237039 0)
(0.30196 -0.0236427 0)
(0.301987 -0.0235816 0)
(0.302013 -0.0235205 0)
(0.302038 -0.0234595 0)
(0.302063 -0.0233987 0)
(0.302087 -0.0233379 0)
(0.302111 -0.0232774 0)
(0.302133 -0.023217 0)
(0.302155 -0.0231568 0)
(0.302176 -0.0230969 0)
(0.302197 -0.0230372 0)
(0.302217 -0.0229779 0)
(0.302236 -0.0229189 0)
(0.302254 -0.0228602 0)
(0.302271 -0.0228019 0)
(0.302288 -0.0227439 0)
(0.302304 -0.0226864 0)
(0.302319 -0.0226294 0)
(0.302333 -0.0225728 0)
(0.302347 -0.0225166 0)
(0.302359 -0.022461 0)
(0.302371 -0.0224059 0)
(0.302383 -0.0223513 0)
(0.302393 -0.0222973 0)
(0.302403 -0.0222439 0)
(0.302412 -0.0221911 0)
(0.30242 -0.0221388 0)
(0.302427 -0.0220872 0)
(0.302434 -0.0220363 0)
(0.30244 -0.021986 0)
(0.302445 -0.0219364 0)
(0.30245 -0.0218874 0)
(0.302453 -0.0218391 0)
(0.302456 -0.0217916 0)
(0.302459 -0.0217448 0)
(0.30246 -0.0216986 0)
(0.302461 -0.0216533 0)
(0.302461 -0.0216086 0)
(0.302461 -0.0215648 0)
(0.30246 -0.0215217 0)
(0.302458 -0.0214793 0)
(0.302455 -0.0214377 0)
(0.302452 -0.021397 0)
(0.302449 -0.021357 0)
(0.302444 -0.0213177 0)
(0.302439 -0.0212793 0)
(0.302434 -0.0212417 0)
(0.302428 -0.0212049 0)
(0.302421 -0.0211689 0)
(0.302414 -0.0211337 0)
(0.302406 -0.0210993 0)
(0.302398 -0.0210657 0)
(0.302389 -0.0210329 0)
(0.30238 -0.0210009 0)
(0.30237 -0.0209697 0)
(0.302359 -0.0209394 0)
(0.302348 -0.0209098 0)
(0.302337 -0.020881 0)
(0.302325 -0.0208531 0)
(0.302313 -0.0208259 0)
(0.302301 -0.0207995 0)
(0.302287 -0.0207739 0)
(0.302274 -0.0207491 0)
(0.30226 -0.0207251 0)
(0.302246 -0.0207019 0)
(0.302231 -0.0206794 0)
(0.302216 -0.0206577 0)
(0.302201 -0.0206367 0)
(0.302185 -0.0206165 0)
(0.302169 -0.020597 0)
(0.302153 -0.0205783 0)
(0.302136 -0.0205603 0)
(0.30212 -0.020543 0)
(0.302102 -0.0205264 0)
(0.302085 -0.0205106 0)
(0.302067 -0.0204954 0)
(0.302049 -0.0204809 0)
(0.302031 -0.0204671 0)
(0.302013 -0.0204539 0)
(0.301995 -0.0204415 0)
(0.301976 -0.0204296 0)
(0.301957 -0.0204184 0)
(0.301938 -0.0204078 0)
(0.301919 -0.0203979 0)
(0.301899 -0.0203885 0)
(0.30188 -0.0203797 0)
(0.30186 -0.0203715 0)
(0.301841 -0.0203639 0)
(0.301821 -0.0203569 0)
(0.301801 -0.0203504 0)
(0.301781 -0.0203444 0)
(0.301761 -0.0203389 0)
(0.301741 -0.020334 0)
(0.301721 -0.0203295 0)
(0.301701 -0.0203256 0)
(0.301681 -0.0203221 0)
(0.301661 -0.0203191 0)
(0.30164 -0.0203165 0)
(0.30162 -0.0203144 0)
(0.3016 -0.0203127 0)
(0.30158 -0.0203114 0)
(0.30156 -0.0203105 0)
(0.30154 -0.0203101 0)
(0.301519 -0.0203099 0)
(0.301499 -0.0203102 0)
(0.301479 -0.0203108 0)
(0.30146 -0.0203118 0)
(0.30144 -0.020313 0)
(0.30142 -0.0203146 0)
(0.3014 -0.0203165 0)
(0.30138 -0.0203188 0)
(0.301361 -0.0203212 0)
(0.301341 -0.020324 0)
(0.301322 -0.020327 0)
(0.301303 -0.0203303 0)
(0.301284 -0.0203338 0)
(0.301265 -0.0203376 0)
(0.301246 -0.0203416 0)
(0.301227 -0.0203458 0)
(0.301208 -0.0203502 0)
(0.301189 -0.0203548 0)
(0.301171 -0.0203595 0)
(0.301153 -0.0203645 0)
(0.301134 -0.0203696 0)
(0.301116 -0.0203749 0)
(0.301098 -0.0203803 0)
(0.30108 -0.0203859 0)
(0.301063 -0.0203916 0)
(0.301045 -0.0203974 0)
(0.301027 -0.0204034 0)
(0.30101 -0.0204095 0)
(0.300993 -0.0204157 0)
(0.300976 -0.0204219 0)
(0.300959 -0.0204283 0)
(0.300942 -0.0204348 0)
(0.300925 -0.0204413 0)
(0.300908 -0.020448 0)
(0.300892 -0.0204547 0)
(0.300875 -0.0204615 0)
(0.300859 -0.0204684 0)
(0.300842 -0.0204753 0)
(0.300826 -0.0204823 0)
(0.30081 -0.0204893 0)
(0.300794 -0.0204965 0)
(0.300778 -0.0205036 0)
(0.300762 -0.0205109 0)
(0.300746 -0.0205182 0)
(0.30073 -0.0205255 0)
(0.300714 -0.0205329 0)
(0.300699 -0.0205404 0)
(0.300683 -0.0205479 0)
(0.300667 -0.0205555 0)
(0.300651 -0.0205632 0)
(0.300636 -0.0205709 0)
(0.30062 -0.0205787 0)
(0.300604 -0.0205866 0)
(0.300588 -0.0205946 0)
(0.300572 -0.0206027 0)
(0.300555 -0.020611 0)
(0.300539 -0.0206193 0)
(0.300522 -0.0206278 0)
(0.300505 -0.0206364 0)
(0.300488 -0.0206453 0)
(0.30047 -0.0206543 0)
(0.300452 -0.0206636 0)
(0.300433 -0.0206731 0)
(0.300414 -0.0206829 0)
(0.300393 -0.0206932 0)
(0.300371 -0.0207038 0)
(0.300348 -0.020715 0)
(0.300323 -0.0207269 0)
(0.300295 -0.0207397 0)
(0.300264 -0.0207536 0)
(0.300227 -0.0207692 0)
(0.300182 -0.020787 0)
(0.300117 -0.0208055 0)
(0.300017 -0.0208173 0)
(0.299108 -0.0226649 0)
(0.298429 -0.0241716 0)
(0.298126 -0.0247502 0)
(0.298017 -0.025004 0)
(0.297994 -0.025132 0)
(0.298012 -0.0252061 0)
(0.298049 -0.0252557 0)
(0.298093 -0.0252929 0)
(0.298138 -0.0253229 0)
(0.298184 -0.0253483 0)
(0.298228 -0.0253703 0)
(0.298271 -0.0253897 0)
(0.298312 -0.0254069 0)
(0.298353 -0.0254223 0)
(0.298393 -0.0254361 0)
(0.298432 -0.0254486 0)
(0.298471 -0.0254598 0)
(0.298509 -0.0254699 0)
(0.298548 -0.025479 0)
(0.298586 -0.0254871 0)
(0.298625 -0.0254944 0)
(0.298663 -0.0255008 0)
(0.298703 -0.0255064 0)
(0.298742 -0.0255113 0)
(0.298782 -0.0255155 0)
(0.298823 -0.025519 0)
(0.298864 -0.0255219 0)
(0.298906 -0.0255241 0)
(0.298948 -0.0255257 0)
(0.298991 -0.0255267 0)
(0.299035 -0.0255271 0)
(0.29908 -0.0255269 0)
(0.299126 -0.0255261 0)
(0.299172 -0.0255248 0)
(0.29922 -0.0255229 0)
(0.299268 -0.0255204 0)
(0.299318 -0.0255174 0)
(0.299368 -0.0255139 0)
(0.299419 -0.0255098 0)
(0.299472 -0.0255052 0)
(0.299525 -0.0255 0)
(0.29958 -0.0254943 0)
(0.299635 -0.025488 0)
(0.299692 -0.0254812 0)
(0.29975 -0.0254739 0)
(0.299809 -0.025466 0)
(0.299869 -0.0254575 0)
(0.29993 -0.0254485 0)
(0.299993 -0.025439 0)
(0.300057 -0.0254289 0)
(0.300122 -0.0254182 0)
(0.300188 -0.0254069 0)
(0.300255 -0.0253951 0)
(0.300324 -0.0253827 0)
(0.300394 -0.0253697 0)
(0.300465 -0.0253562 0)
(0.300537 -0.025342 0)
(0.300611 -0.0253273 0)
(0.300686 -0.0253119 0)
(0.300762 -0.025296 0)
(0.30084 -0.0252795 0)
(0.300918 -0.0252623 0)
(0.300998 -0.0252445 0)
(0.30108 -0.0252261 0)
(0.301162 -0.0252071 0)
(0.301246 -0.0251874 0)
(0.301331 -0.0251671 0)
(0.301417 -0.0251462 0)
(0.301505 -0.0251246 0)
(0.301593 -0.0251024 0)
(0.301683 -0.0250795 0)
(0.301774 -0.025056 0)
(0.301866 -0.0250318 0)
(0.301959 -0.025007 0)
(0.302054 -0.0249815 0)
(0.302149 -0.0249554 0)
(0.302245 -0.0249286 0)
(0.302343 -0.0249011 0)
(0.302441 -0.024873 0)
(0.30254 -0.0248442 0)
(0.30264 -0.0248148 0)
(0.302741 -0.0247847 0)
(0.302843 -0.0247539 0)
(0.302946 -0.0247225 0)
(0.303049 -0.0246905 0)
(0.303153 -0.0246577 0)
(0.303257 -0.0246244 0)
(0.303362 -0.0245904 0)
(0.303468 -0.0245558 0)
(0.303574 -0.0245206 0)
(0.30368 -0.0244847 0)
(0.303786 -0.0244483 0)
(0.303893 -0.0244112 0)
(0.304 -0.0243736 0)
(0.304107 -0.0243354 0)
(0.304215 -0.0242966 0)
(0.304322 -0.0242572 0)
(0.304429 -0.0242173 0)
(0.304536 -0.0241769 0)
(0.304643 -0.024136 0)
(0.304749 -0.0240946 0)
(0.304855 -0.0240526 0)
(0.304961 -0.0240102 0)
(0.305066 -0.0239674 0)
(0.305171 -0.0239241 0)
(0.305275 -0.0238804 0)
(0.305378 -0.0238363 0)
(0.305481 -0.0237918 0)
(0.305582 -0.0237469 0)
(0.305683 -0.0237017 0)
(0.305783 -0.0236562 0)
(0.305882 -0.0236103 0)
(0.305979 -0.0235642 0)
(0.306075 -0.0235179 0)
(0.306171 -0.0234712 0)
(0.306264 -0.0234244 0)
(0.306357 -0.0233774 0)
(0.306448 -0.0233302 0)
(0.306537 -0.0232829 0)
(0.306625 -0.0232354 0)
(0.306712 -0.0231878 0)
(0.306797 -0.0231402 0)
(0.30688 -0.0230925 0)
(0.306961 -0.0230448 0)
(0.30704 -0.022997 0)
(0.307118 -0.0229493 0)
(0.307194 -0.0229016 0)
(0.307268 -0.022854 0)
(0.30734 -0.0228064 0)
(0.30741 -0.022759 0)
(0.307477 -0.0227117 0)
(0.307543 -0.0226645 0)
(0.307607 -0.0226175 0)
(0.307669 -0.0225707 0)
(0.307729 -0.0225241 0)
(0.307786 -0.0224778 0)
(0.307841 -0.0224317 0)
(0.307895 -0.0223859 0)
(0.307946 -0.0223403 0)
(0.307994 -0.0222951 0)
(0.308041 -0.0222502 0)
(0.308085 -0.0222057 0)
(0.308128 -0.0221615 0)
(0.308168 -0.0221177 0)
(0.308205 -0.0220743 0)
(0.308241 -0.0220313 0)
(0.308274 -0.0219888 0)
(0.308306 -0.0219467 0)
(0.308335 -0.021905 0)
(0.308362 -0.0218639 0)
(0.308386 -0.0218232 0)
(0.308409 -0.021783 0)
(0.308429 -0.0217433 0)
(0.308447 -0.0217041 0)
(0.308463 -0.0216655 0)
(0.308478 -0.0216274 0)
(0.308489 -0.0215899 0)
(0.308499 -0.0215529 0)
(0.308507 -0.0215165 0)
(0.308513 -0.0214806 0)
(0.308517 -0.0214454 0)
(0.308519 -0.0214107 0)
(0.308519 -0.0213767 0)
(0.308517 -0.0213432 0)
(0.308513 -0.0213103 0)
(0.308507 -0.0212781 0)
(0.3085 -0.0212465 0)
(0.30849 -0.0212155 0)
(0.308479 -0.0211851 0)
(0.308466 -0.0211554 0)
(0.308452 -0.0211262 0)
(0.308435 -0.0210977 0)
(0.308417 -0.0210699 0)
(0.308398 -0.0210427 0)
(0.308377 -0.0210161 0)
(0.308354 -0.0209902 0)
(0.30833 -0.0209649 0)
(0.308304 -0.0209402 0)
(0.308277 -0.0209162 0)
(0.308248 -0.0208928 0)
(0.308218 -0.02087 0)
(0.308187 -0.0208479 0)
(0.308154 -0.0208263 0)
(0.30812 -0.0208055 0)
(0.308085 -0.0207852 0)
(0.308048 -0.0207656 0)
(0.30801 -0.0207465 0)
(0.307972 -0.0207281 0)
(0.307932 -0.0207103 0)
(0.307891 -0.0206931 0)
(0.307848 -0.0206765 0)
(0.307805 -0.0206605 0)
(0.307761 -0.0206451 0)
(0.307716 -0.0206303 0)
(0.30767 -0.0206161 0)
(0.307623 -0.0206024 0)
(0.307576 -0.0205893 0)
(0.307527 -0.0205767 0)
(0.307478 -0.0205647 0)
(0.307428 -0.0205532 0)
(0.307377 -0.0205423 0)
(0.307326 -0.0205319 0)
(0.307274 -0.0205221 0)
(0.307222 -0.0205127 0)
(0.307168 -0.0205039 0)
(0.307115 -0.0204955 0)
(0.307061 -0.0204876 0)
(0.307006 -0.0204803 0)
(0.306951 -0.0204734 0)
(0.306896 -0.0204669 0)
(0.30684 -0.0204609 0)
(0.306784 -0.0204554 0)
(0.306727 -0.0204503 0)
(0.306671 -0.0204456 0)
(0.306614 -0.0204413 0)
(0.306556 -0.0204375 0)
(0.306499 -0.020434 0)
(0.306442 -0.020431 0)
(0.306384 -0.0204283 0)
(0.306326 -0.020426 0)
(0.306268 -0.020424 0)
(0.30621 -0.0204224 0)
(0.306152 -0.0204211 0)
(0.306095 -0.0204202 0)
(0.306037 -0.0204196 0)
(0.305979 -0.0204193 0)
(0.305921 -0.0204193 0)
(0.305863 -0.0204196 0)
(0.305806 -0.0204201 0)
(0.305748 -0.020421 0)
(0.305691 -0.0204221 0)
(0.305634 -0.0204234 0)
(0.305576 -0.020425 0)
(0.30552 -0.0204269 0)
(0.305463 -0.020429 0)
(0.305407 -0.0204312 0)
(0.30535 -0.0204337 0)
(0.305294 -0.0204364 0)
(0.305239 -0.0204393 0)
(0.305183 -0.0204424 0)
(0.305128 -0.0204456 0)
(0.305073 -0.020449 0)
(0.305019 -0.0204526 0)
(0.304965 -0.0204563 0)
(0.304911 -0.0204602 0)
(0.304857 -0.0204642 0)
(0.304804 -0.0204683 0)
(0.304751 -0.0204726 0)
(0.304698 -0.020477 0)
(0.304646 -0.0204814 0)
(0.304594 -0.020486 0)
(0.304542 -0.0204907 0)
(0.304491 -0.0204955 0)
(0.30444 -0.0205003 0)
(0.30439 -0.0205053 0)
(0.304339 -0.0205103 0)
(0.304289 -0.0205154 0)
(0.30424 -0.0205205 0)
(0.30419 -0.0205257 0)
(0.304141 -0.020531 0)
(0.304092 -0.0205363 0)
(0.304044 -0.0205416 0)
(0.303996 -0.0205471 0)
(0.303948 -0.0205525 0)
(0.3039 -0.020558 0)
(0.303853 -0.0205635 0)
(0.303805 -0.0205691 0)
(0.303758 -0.0205747 0)
(0.303711 -0.0205803 0)
(0.303665 -0.0205859 0)
(0.303618 -0.0205916 0)
(0.303572 -0.0205973 0)
(0.303525 -0.020603 0)
(0.303479 -0.0206088 0)
(0.303433 -0.0206146 0)
(0.303386 -0.0206204 0)
(0.30334 -0.0206262 0)
(0.303293 -0.020632 0)
(0.303246 -0.0206379 0)
(0.3032 -0.0206438 0)
(0.303152 -0.0206497 0)
(0.303105 -0.0206557 0)
(0.303056 -0.0206616 0)
(0.303008 -0.0206676 0)
(0.302958 -0.0206736 0)
(0.302908 -0.0206796 0)
(0.302856 -0.0206857 0)
(0.302803 -0.0206917 0)
(0.302749 -0.0206977 0)
(0.302693 -0.0207036 0)
(0.302634 -0.0207095 0)
(0.302572 -0.0207151 0)
(0.302507 -0.0207205 0)
(0.302437 -0.0207253 0)
(0.302361 -0.0207294 0)
(0.302277 -0.020732 0)
(0.302182 -0.0207324 0)
(0.302075 -0.0207286 0)
(0.301942 -0.0207175 0)
(0.301771 -0.0206991 0)
(0.299167 -0.022059 0)
(0.298641 -0.0234208 0)
(0.298224 -0.0241601 0)
(0.297949 -0.0245573 0)
(0.297793 -0.0247732 0)
(0.297716 -0.0248953 0)
(0.297688 -0.0249693 0)
(0.297691 -0.025018 0)
(0.297711 -0.0250528 0)
(0.297742 -0.0250795 0)
(0.297781 -0.0251011 0)
(0.297823 -0.0251194 0)
(0.297868 -0.0251354 0)
(0.297916 -0.0251495 0)
(0.297965 -0.0251622 0)
(0.298015 -0.0251737 0)
(0.298066 -0.0251842 0)
(0.298118 -0.0251937 0)
(0.298171 -0.0252025 0)
(0.298225 -0.0252104 0)
(0.29828 -0.0252176 0)
(0.298336 -0.0252241 0)
(0.298393 -0.0252301 0)
(0.298451 -0.0252353 0)
(0.298511 -0.02524 0)
(0.298571 -0.0252442 0)
(0.298633 -0.0252477 0)
(0.298696 -0.0252508 0)
(0.298761 -0.0252533 0)
(0.298827 -0.0252553 0)
(0.298894 -0.0252568 0)
(0.298963 -0.0252578 0)
(0.299033 -0.0252583 0)
(0.299105 -0.0252583 0)
(0.299178 -0.0252578 0)
(0.299253 -0.0252569 0)
(0.29933 -0.0252555 0)
(0.299408 -0.0252535 0)
(0.299488 -0.0252512 0)
(0.29957 -0.0252483 0)
(0.299653 -0.025245 0)
(0.299738 -0.0252411 0)
(0.299825 -0.0252368 0)
(0.299914 -0.025232 0)
(0.300005 -0.0252268 0)
(0.300097 -0.025221 0)
(0.300192 -0.0252148 0)
(0.300288 -0.025208 0)
(0.300387 -0.0252008 0)
(0.300487 -0.025193 0)
(0.300589 -0.0251848 0)
(0.300694 -0.025176 0)
(0.3008 -0.0251667 0)
(0.300908 -0.0251569 0)
(0.301019 -0.0251466 0)
(0.301131 -0.0251357 0)
(0.301245 -0.0251243 0)
(0.301362 -0.0251123 0)
(0.301481 -0.0250998 0)
(0.301601 -0.0250867 0)
(0.301724 -0.0250731 0)
(0.301849 -0.0250589 0)
(0.301976 -0.0250441 0)
(0.302104 -0.0250287 0)
(0.302235 -0.0250128 0)
(0.302368 -0.0249962 0)
(0.302503 -0.024979 0)
(0.30264 -0.0249613 0)
(0.302779 -0.0249429 0)
(0.30292 -0.0249239 0)
(0.303063 -0.0249042 0)
(0.303207 -0.0248839 0)
(0.303354 -0.024863 0)
(0.303502 -0.0248415 0)
(0.303652 -0.0248193 0)
(0.303804 -0.0247964 0)
(0.303958 -0.0247729 0)
(0.304113 -0.0247487 0)
(0.30427 -0.0247239 0)
(0.304428 -0.0246984 0)
(0.304588 -0.0246723 0)
(0.304749 -0.0246455 0)
(0.304912 -0.024618 0)
(0.305075 -0.0245898 0)
(0.30524 -0.024561 0)
(0.305406 -0.0245315 0)
(0.305574 -0.0245013 0)
(0.305742 -0.0244705 0)
(0.305911 -0.024439 0)
(0.30608 -0.0244069 0)
(0.306251 -0.0243741 0)
(0.306422 -0.0243407 0)
(0.306593 -0.0243066 0)
(0.306765 -0.0242719 0)
(0.306937 -0.0242366 0)
(0.307109 -0.0242006 0)
(0.307282 -0.0241641 0)
(0.307454 -0.0241269 0)
(0.307626 -0.0240892 0)
(0.307798 -0.0240509 0)
(0.30797 -0.024012 0)
(0.308141 -0.0239726 0)
(0.308312 -0.0239326 0)
(0.308482 -0.0238921 0)
(0.308651 -0.0238512 0)
(0.308819 -0.0238097 0)
(0.308986 -0.0237678 0)
(0.309152 -0.0237254 0)
(0.309317 -0.0236826 0)
(0.30948 -0.0236394 0)
(0.309642 -0.0235957 0)
(0.309803 -0.0235518 0)
(0.309961 -0.0235074 0)
(0.310118 -0.0234628 0)
(0.310273 -0.0234178 0)
(0.310426 -0.0233725 0)
(0.310577 -0.023327 0)
(0.310726 -0.0232813 0)
(0.310872 -0.0232353 0)
(0.311016 -0.0231891 0)
(0.311158 -0.0231428 0)
(0.311297 -0.0230963 0)
(0.311433 -0.0230498 0)
(0.311567 -0.0230031 0)
(0.311698 -0.0229563 0)
(0.311826 -0.0229096 0)
(0.311951 -0.0228628 0)
(0.312073 -0.022816 0)
(0.312192 -0.0227692 0)
(0.312308 -0.0227225 0)
(0.312421 -0.0226758 0)
(0.312531 -0.0226293 0)
(0.312637 -0.0225829 0)
(0.31274 -0.0225366 0)
(0.31284 -0.0224905 0)
(0.312937 -0.0224446 0)
(0.31303 -0.0223989 0)
(0.31312 -0.0223534 0)
(0.313206 -0.0223082 0)
(0.313289 -0.0222633 0)
(0.313368 -0.0222187 0)
(0.313444 -0.0221743 0)
(0.313516 -0.0221304 0)
(0.313585 -0.0220867 0)
(0.31365 -0.0220435 0)
(0.313712 -0.0220006 0)
(0.31377 -0.0219581 0)
(0.313825 -0.0219161 0)
(0.313876 -0.0218745 0)
(0.313924 -0.0218333 0)
(0.313968 -0.0217926 0)
(0.314009 -0.0217524 0)
(0.314046 -0.0217127 0)
(0.31408 -0.0216734 0)
(0.314111 -0.0216347 0)
(0.314138 -0.0215965 0)
(0.314162 -0.0215589 0)
(0.314183 -0.0215218 0)
(0.3142 -0.0214852 0)
(0.314214 -0.0214492 0)
(0.314225 -0.0214138 0)
(0.314232 -0.021379 0)
(0.314237 -0.0213448 0)
(0.314238 -0.0213111 0)
(0.314236 -0.0212781 0)
(0.314232 -0.0212456 0)
(0.314224 -0.0212138 0)
(0.314213 -0.0211826 0)
(0.3142 -0.021152 0)
(0.314183 -0.021122 0)
(0.314164 -0.0210926 0)
(0.314142 -0.0210639 0)
(0.314117 -0.0210358 0)
(0.31409 -0.0210084 0)
(0.31406 -0.0209815 0)
(0.314027 -0.0209554 0)
(0.313992 -0.0209298 0)
(0.313954 -0.0209049 0)
(0.313914 -0.0208806 0)
(0.313872 -0.0208569 0)
(0.313827 -0.0208339 0)
(0.31378 -0.0208115 0)
(0.313731 -0.0207898 0)
(0.31368 -0.0207686 0)
(0.313626 -0.0207481 0)
(0.313571 -0.0207282 0)
(0.313513 -0.020709 0)
(0.313454 -0.0206903 0)
(0.313393 -0.0206723 0)
(0.31333 -0.0206549 0)
(0.313265 -0.020638 0)
(0.313199 -0.0206218 0)
(0.31313 -0.0206062 0)
(0.313061 -0.0205911 0)
(0.312989 -0.0205767 0)
(0.312916 -0.0205628 0)
(0.312842 -0.0205495 0)
(0.312767 -0.0205367 0)
(0.31269 -0.0205245 0)
(0.312612 -0.0205129 0)
(0.312532 -0.0205018 0)
(0.312452 -0.0204913 0)
(0.31237 -0.0204813 0)
(0.312287 -0.0204718 0)
(0.312204 -0.0204628 0)
(0.312119 -0.0204543 0)
(0.312034 -0.0204464 0)
(0.311947 -0.0204389 0)
(0.31186 -0.0204319 0)
(0.311773 -0.0204253 0)
(0.311684 -0.0204193 0)
(0.311595 -0.0204137 0)
(0.311505 -0.0204085 0)
(0.311415 -0.0204038 0)
(0.311325 -0.0203995 0)
(0.311234 -0.0203956 0)
(0.311142 -0.0203922 0)
(0.31105 -0.0203891 0)
(0.310958 -0.0203864 0)
(0.310866 -0.0203841 0)
(0.310773 -0.0203822 0)
(0.310681 -0.0203806 0)
(0.310588 -0.0203794 0)
(0.310495 -0.0203785 0)
(0.310402 -0.0203779 0)
(0.310309 -0.0203777 0)
(0.310216 -0.0203778 0)
(0.310123 -0.0203782 0)
(0.310031 -0.0203788 0)
(0.309938 -0.0203798 0)
(0.309846 -0.020381 0)
(0.309753 -0.0203824 0)
(0.309661 -0.0203842 0)
(0.30957 -0.0203861 0)
(0.309478 -0.0203883 0)
(0.309387 -0.0203907 0)
(0.309296 -0.0203933 0)
(0.309205 -0.0203962 0)
(0.309115 -0.0203992 0)
(0.309025 -0.0204024 0)
(0.308936 -0.0204058 0)
(0.308847 -0.0204093 0)
(0.308758 -0.020413 0)
(0.30867 -0.0204169 0)
(0.308583 -0.0204209 0)
(0.308496 -0.020425 0)
(0.308409 -0.0204293 0)
(0.308323 -0.0204336 0)
(0.308237 -0.0204381 0)
(0.308152 -0.0204427 0)
(0.308067 -0.0204474 0)
(0.307983 -0.0204522 0)
(0.307899 -0.0204571 0)
(0.307816 -0.020462 0)
(0.307733 -0.020467 0)
(0.307651 -0.0204721 0)
(0.307569 -0.0204773 0)
(0.307488 -0.0204825 0)
(0.307407 -0.0204877 0)
(0.307327 -0.020493 0)
(0.307247 -0.0204983 0)
(0.307168 -0.0205037 0)
(0.307089 -0.020509 0)
(0.30701 -0.0205144 0)
(0.306932 -0.0205199 0)
(0.306854 -0.0205253 0)
(0.306777 -0.0205307 0)
(0.3067 -0.0205362 0)
(0.306623 -0.0205416 0)
(0.306547 -0.0205471 0)
(0.30647 -0.0205525 0)
(0.306394 -0.0205579 0)
(0.306318 -0.0205633 0)
(0.306242 -0.0205687 0)
(0.306166 -0.0205741 0)
(0.30609 -0.0205794 0)
(0.306014 -0.0205847 0)
(0.305938 -0.0205899 0)
(0.305862 -0.0205951 0)
(0.305785 -0.0206002 0)
(0.305708 -0.0206052 0)
(0.30563 -0.0206101 0)
(0.305552 -0.0206149 0)
(0.305472 -0.0206196 0)
(0.305392 -0.0206241 0)
(0.30531 -0.0206284 0)
(0.305227 -0.0206324 0)
(0.305141 -0.0206361 0)
(0.305054 -0.0206394 0)
(0.304963 -0.0206421 0)
(0.30487 -0.020644 0)
(0.304772 -0.020645 0)
(0.304669 -0.0206447 0)
(0.30456 -0.0206425 0)
(0.304443 -0.0206378 0)
(0.304317 -0.0206296 0)
(0.304181 -0.0206167 0)
(0.304033 -0.0205974 0)
(0.303863 -0.0205707 0)
(0.303659 -0.020542 0)
(0.299199 -0.0217687 0)
(0.298825 -0.0229978 0)
(0.298418 -0.0238142 0)
(0.298077 -0.0243278 0)
(0.297832 -0.0246443 0)
(0.297668 -0.0248405 0)
(0.297567 -0.0249653 0)
(0.297511 -0.0250478 0)
(0.297488 -0.0251048 0)
(0.297486 -0.0251462 0)
(0.297501 -0.0251779 0)
(0.297528 -0.0252031 0)
(0.297563 -0.0252241 0)
(0.297604 -0.025242 0)
(0.297651 -0.0252576 0)
(0.297702 -0.0252715 0)
(0.297757 -0.0252841 0)
(0.297814 -0.0252955 0)
(0.297874 -0.025306 0)
(0.297937 -0.0253156 0)
(0.298002 -0.0253244 0)
(0.298069 -0.0253326 0)
(0.298139 -0.0253401 0)
(0.29821 -0.025347 0)
(0.298284 -0.0253533 0)
(0.29836 -0.0253591 0)
(0.298438 -0.0253644 0)
(0.298518 -0.0253691 0)
(0.2986 -0.0253734 0)
(0.298684 -0.0253771 0)
(0.29877 -0.0253804 0)
(0.298859 -0.0253832 0)
(0.29895 -0.0253856 0)
(0.299043 -0.0253875 0)
(0.299138 -0.0253889 0)
(0.299236 -0.0253899 0)
(0.299335 -0.0253904 0)
(0.299438 -0.0253905 0)
(0.299542 -0.0253901 0)
(0.29965 -0.0253893 0)
(0.299759 -0.025388 0)
(0.299871 -0.0253863 0)
(0.299986 -0.0253841 0)
(0.300103 -0.0253815 0)
(0.300222 -0.0253783 0)
(0.300345 -0.0253748 0)
(0.300469 -0.0253707 0)
(0.300597 -0.0253662 0)
(0.300727 -0.0253612 0)
(0.30086 -0.0253557 0)
(0.300996 -0.0253497 0)
(0.301134 -0.0253432 0)
(0.301275 -0.0253362 0)
(0.301419 -0.0253286 0)
(0.301566 -0.0253206 0)
(0.301715 -0.025312 0)
(0.301867 -0.0253029 0)
(0.302022 -0.0252932 0)
(0.30218 -0.025283 0)
(0.302341 -0.0252722 0)
(0.302504 -0.0252609 0)
(0.302671 -0.0252489 0)
(0.30284 -0.0252364 0)
(0.303012 -0.0252233 0)
(0.303186 -0.0252095 0)
(0.303364 -0.0251952 0)
(0.303544 -0.0251802 0)
(0.303727 -0.0251646 0)
(0.303913 -0.0251483 0)
(0.304101 -0.0251314 0)
(0.304292 -0.0251138 0)
(0.304486 -0.0250955 0)
(0.304682 -0.0250765 0)
(0.304881 -0.0250569 0)
(0.305082 -0.0250365 0)
(0.305285 -0.0250155 0)
(0.305491 -0.0249937 0)
(0.305699 -0.0249712 0)
(0.30591 -0.0249479 0)
(0.306122 -0.024924 0)
(0.306337 -0.0248992 0)
(0.306553 -0.0248738 0)
(0.306771 -0.0248475 0)
(0.306992 -0.0248206 0)
(0.307213 -0.0247928 0)
(0.307437 -0.0247643 0)
(0.307662 -0.024735 0)
(0.307888 -0.024705 0)
(0.308116 -0.0246742 0)
(0.308344 -0.0246426 0)
(0.308574 -0.0246102 0)
(0.308805 -0.0245771 0)
(0.309036 -0.0245432 0)
(0.309268 -0.0245086 0)
(0.3095 -0.0244732 0)
(0.309733 -0.0244371 0)
(0.309967 -0.0244003 0)
(0.3102 -0.0243627 0)
(0.310433 -0.0243244 0)
(0.310666 -0.0242853 0)
(0.310898 -0.0242456 0)
(0.31113 -0.0242052 0)
(0.311362 -0.0241642 0)
(0.311593 -0.0241224 0)
(0.311822 -0.0240801 0)
(0.312051 -0.0240371 0)
(0.312278 -0.0239935 0)
(0.312504 -0.0239493 0)
(0.312729 -0.0239046 0)
(0.312951 -0.0238593 0)
(0.313172 -0.0238135 0)
(0.313391 -0.0237672 0)
(0.313608 -0.0237204 0)
(0.313822 -0.0236732 0)
(0.314034 -0.0236255 0)
(0.314243 -0.0235775 0)
(0.31445 -0.023529 0)
(0.314654 -0.0234802 0)
(0.314855 -0.0234311 0)
(0.315053 -0.0233817 0)
(0.315248 -0.023332 0)
(0.315439 -0.0232821 0)
(0.315627 -0.0232319 0)
(0.315812 -0.0231816 0)
(0.315993 -0.0231311 0)
(0.31617 -0.0230805 0)
(0.316343 -0.0230298 0)
(0.316513 -0.022979 0)
(0.316678 -0.0229282 0)
(0.31684 -0.0228774 0)
(0.316997 -0.0228266 0)
(0.31715 -0.0227758 0)
(0.317298 -0.0227251 0)
(0.317443 -0.0226745 0)
(0.317583 -0.0226241 0)
(0.317718 -0.0225738 0)
(0.317849 -0.0225236 0)
(0.317976 -0.0224737 0)
(0.318098 -0.022424 0)
(0.318215 -0.0223746 0)
(0.318328 -0.0223254 0)
(0.318436 -0.0222766 0)
(0.318539 -0.022228 0)
(0.318638 -0.0221798 0)
(0.318732 -0.022132 0)
(0.318821 -0.0220846 0)
(0.318905 -0.0220376 0)
(0.318985 -0.021991 0)
(0.31906 -0.0219449 0)
(0.319131 -0.0218992 0)
(0.319197 -0.021854 0)
(0.319258 -0.0218093 0)
(0.319314 -0.0217652 0)
(0.319366 -0.0217215 0)
(0.319413 -0.0216785 0)
(0.319456 -0.0216359 0)
(0.319494 -0.021594 0)
(0.319528 -0.0215526 0)
(0.319557 -0.0215118 0)
(0.319582 -0.0214717 0)
(0.319602 -0.0214321 0)
(0.319618 -0.0213932 0)
(0.31963 -0.0213549 0)
(0.319638 -0.0213173 0)
(0.319641 -0.0212803 0)
(0.31964 -0.0212439 0)
(0.319635 -0.0212083 0)
(0.319626 -0.0211733 0)
(0.319613 -0.021139 0)
(0.319597 -0.0211053 0)
(0.319576 -0.0210724 0)
(0.319551 -0.0210401 0)
(0.319523 -0.0210085 0)
(0.319491 -0.0209777 0)
(0.319456 -0.0209475 0)
(0.319417 -0.020918 0)
(0.319374 -0.0208892 0)
(0.319328 -0.0208612 0)
(0.319279 -0.0208338 0)
(0.319227 -0.0208071 0)
(0.319171 -0.0207811 0)
(0.319112 -0.0207559 0)
(0.31905 -0.0207313 0)
(0.318985 -0.0207074 0)
(0.318917 -0.0206842 0)
(0.318846 -0.0206617 0)
(0.318773 -0.0206399 0)
(0.318697 -0.0206188 0)
(0.318618 -0.0205984 0)
(0.318537 -0.0205786 0)
(0.318453 -0.0205596 0)
(0.318366 -0.0205411 0)
(0.318278 -0.0205234 0)
(0.318187 -0.0205063 0)
(0.318094 -0.0204899 0)
(0.317999 -0.0204741 0)
(0.317901 -0.020459 0)
(0.317802 -0.0204445 0)
(0.317701 -0.0204306 0)
(0.317598 -0.0204174 0)
(0.317494 -0.0204048 0)
(0.317387 -0.0203928 0)
(0.31728 -0.0203813 0)
(0.31717 -0.0203705 0)
(0.317059 -0.0203603 0)
(0.316947 -0.0203506 0)
(0.316834 -0.0203415 0)
(0.316719 -0.020333 0)
(0.316603 -0.020325 0)
(0.316486 -0.0203175 0)
(0.316368 -0.0203106 0)
(0.31625 -0.0203042 0)
(0.31613 -0.0202983 0)
(0.316009 -0.0202929 0)
(0.315888 -0.020288 0)
(0.315766 -0.0202836 0)
(0.315643 -0.0202796 0)
(0.31552 -0.0202761 0)
(0.315397 -0.0202731 0)
(0.315273 -0.0202704 0)
(0.315148 -0.0202682 0)
(0.315023 -0.0202664 0)
(0.314898 -0.020265 0)
(0.314773 -0.020264 0)
(0.314648 -0.0202634 0)
(0.314522 -0.0202631 0)
(0.314397 -0.0202632 0)
(0.314271 -0.0202637 0)
(0.314146 -0.0202645 0)
(0.314021 -0.0202655 0)
(0.313895 -0.0202669 0)
(0.31377 -0.0202686 0)
(0.313645 -0.0202706 0)
(0.313521 -0.0202729 0)
(0.313397 -0.0202754 0)
(0.313273 -0.0202782 0)
(0.313149 -0.0202812 0)
(0.313026 -0.0202844 0)
(0.312903 -0.0202879 0)
(0.312781 -0.0202915 0)
(0.312659 -0.0202954 0)
(0.312538 -0.0202995 0)
(0.312417 -0.0203037 0)
(0.312297 -0.0203081 0)
(0.312177 -0.0203127 0)
(0.312058 -0.0203174 0)
(0.311939 -0.0203222 0)
(0.311821 -0.0203272 0)
(0.311704 -0.0203323 0)
(0.311588 -0.0203375 0)
(0.311471 -0.0203429 0)
(0.311356 -0.0203483 0)
(0.311241 -0.0203538 0)
(0.311127 -0.0203593 0)
(0.311014 -0.020365 0)
(0.310901 -0.0203707 0)
(0.310789 -0.0203764 0)
(0.310677 -0.0203822 0)
(0.310566 -0.0203881 0)
(0.310456 -0.020394 0)
(0.310346 -0.0203999 0)
(0.310237 -0.0204058 0)
(0.310129 -0.0204117 0)
(0.310021 -0.0204176 0)
(0.309913 -0.0204235 0)
(0.309806 -0.0204295 0)
(0.3097 -0.0204353 0)
(0.309594 -0.0204412 0)
(0.309488 -0.020447 0)
(0.309383 -0.0204528 0)
(0.309278 -0.0204585 0)
(0.309173 -0.0204642 0)
(0.309068 -0.0204698 0)
(0.308964 -0.0204753 0)
(0.308859 -0.0204808 0)
(0.308755 -0.0204861 0)
(0.308651 -0.0204913 0)
(0.308546 -0.0204963 0)
(0.308441 -0.0205012 0)
(0.308336 -0.020506 0)
(0.30823 -0.0205105 0)
(0.308123 -0.0205147 0)
(0.308016 -0.0205187 0)
(0.307907 -0.0205223 0)
(0.307797 -0.0205255 0)
(0.307686 -0.0205282 0)
(0.307572 -0.0205303 0)
(0.307457 -0.0205317 0)
(0.307338 -0.0205322 0)
(0.307216 -0.0205315 0)
(0.307091 -0.0205294 0)
(0.30696 -0.0205254 0)
(0.306824 -0.0205191 0)
(0.306682 -0.0205098 0)
(0.306531 -0.0204966 0)
(0.306372 -0.0204786 0)
(0.306204 -0.0204547 0)
(0.306027 -0.0204247 0)
(0.305831 -0.0203898 0)
(0.305605 -0.020359 0)
(0.299223 -0.0215791 0)
(0.298957 -0.0226513 0)
(0.298606 -0.0234589 0)
(0.298264 -0.0240302 0)
(0.297979 -0.0244221 0)
(0.297759 -0.0246883 0)
(0.2976 -0.02487 0)
(0.297489 -0.0249962 0)
(0.297419 -0.0250859 0)
(0.297378 -0.0251515 0)
(0.297362 -0.0252012 0)
(0.297363 -0.02524 0)
(0.297379 -0.0252714 0)
(0.297407 -0.0252975 0)
(0.297443 -0.0253197 0)
(0.297487 -0.025339 0)
(0.297538 -0.0253562 0)
(0.297594 -0.0253716 0)
(0.297655 -0.0253857 0)
(0.297721 -0.0253986 0)
(0.29779 -0.0254104 0)
(0.297864 -0.0254215 0)
(0.297941 -0.0254318 0)
(0.298021 -0.0254413 0)