/*--------------------------------*- C++ -*----------------------------------*\
| =========                 |                                                 |
| \\      /  F ield         | OpenFOAM: The Open Source CFD Toolbox           |
|  \\    /   O peration     | Version:  2512                                  |
|   \\  /    A nd           | Website:  www.openfoam.com                      |
|    \\/     M anipulation  |                                                 |
\*---------------------------------------------------------------------------*/
FoamFile
{
    version     2.0;
    format      ascii;
    arch        "LSB;label=32;scalar=64";
    class       volScalarField;
    location    "2752";
    object      div(phi);
}
// * * * * * * * * * * * * * * * * * * * * * * * * * * * * * * * * * * * * * //

dimensions      [0 0 -1 0 0 0 0];

internalField   nonuniform List<scalar> 
66422
(
-1.6656e-07
-3.42943e-07
-3.88155e-07
-3.99867e-07
-4.10417e-07
-4.18423e-07
-4.24255e-07
-4.28729e-07
-4.32319e-07
-4.35261e-07
-4.37733e-07
-4.39845e-07
-4.4168e-07
-4.43292e-07
-4.44722e-07
-4.45998e-07
-4.47143e-07
-4.48172e-07
-4.49101e-07
-4.49937e-07
-4.50691e-07
-4.51369e-07
-4.51977e-07
-4.5252e-07
-4.53002e-07
-4.53427e-07
-4.53798e-07
-4.54117e-07
-4.54387e-07
-4.54611e-07
-4.5479e-07
-4.54926e-07
-4.5502e-07
-4.55074e-07
-4.55089e-07
-4.55067e-07
-4.55008e-07
-4.54913e-07
-4.54783e-07
-4.5462e-07
-4.54423e-07
-4.54194e-07
-4.53932e-07
-4.5364e-07
-4.53317e-07
-4.52965e-07
-4.52582e-07
-4.52172e-07
-4.51733e-07
-4.51266e-07
-4.50772e-07
-4.50252e-07
-4.49704e-07
-4.49132e-07
-4.48534e-07
-4.47913e-07
-4.47266e-07
-4.46597e-07
-4.45903e-07
-4.45188e-07
-4.4445e-07
-4.43692e-07
-4.42912e-07
-4.42112e-07
-4.41292e-07
-4.40454e-07
-4.39596e-07
-4.38722e-07
-4.37829e-07
-4.36921e-07
-4.35995e-07
-4.35056e-07
-4.34101e-07
-4.33134e-07
-4.32153e-07
-4.31161e-07
-4.30156e-07
-4.29141e-07
-4.28116e-07
-4.27083e-07
-4.26041e-07
-4.24993e-07
-4.23937e-07
-4.22877e-07
-4.21811e-07
-4.20743e-07
-4.19672e-07
-4.186e-07
-4.17526e-07
-4.16454e-07
-4.15381e-07
-4.14313e-07
-4.13247e-07
-4.12186e-07
-4.1113e-07
-4.10082e-07
-4.0904e-07
-4.08008e-07
-4.06984e-07
-4.05972e-07
-4.04971e-07
-4.03984e-07
-4.0301e-07
-4.02051e-07
-4.01108e-07
-4.00182e-07
-3.99273e-07
-3.98384e-07
-3.97514e-07
-3.96665e-07
-3.95837e-07
-3.95033e-07
-3.94251e-07
-3.93494e-07
-3.92761e-07
-3.92055e-07
-3.91374e-07
-3.90722e-07
-3.90096e-07
-3.895e-07
-3.88933e-07
-3.88395e-07
-3.87887e-07
-3.87411e-07
-3.86965e-07
-3.86551e-07
-3.86169e-07
-3.85819e-07
-3.85502e-07
-3.85217e-07
-3.84966e-07
-3.84747e-07
-3.84562e-07
-3.8441e-07
-3.84292e-07
-3.84206e-07
-3.84154e-07
-3.84135e-07
-3.84149e-07
-3.84195e-07
-3.84275e-07
-3.84386e-07
-3.84529e-07
-3.84703e-07
-3.84909e-07
-3.85146e-07
-3.85412e-07
-3.85708e-07
-3.86034e-07
-3.86387e-07
-3.86769e-07
-3.87177e-07
-3.87612e-07
-3.88073e-07
-3.88559e-07
-3.89068e-07
-3.89602e-07
-3.90157e-07
-3.90735e-07
-3.91332e-07
-3.91951e-07
-3.92586e-07
-3.93241e-07
-3.93912e-07
-3.94599e-07
-3.953e-07
-3.96015e-07
-3.96742e-07
-3.97482e-07
-3.9823e-07
-3.98989e-07
-3.99755e-07
-4.00529e-07
-4.01307e-07
-4.02091e-07
-4.02877e-07
-4.03667e-07
-4.04457e-07
-4.05247e-07
-4.06035e-07
-4.06821e-07
-4.07603e-07
-4.0838e-07
-4.09151e-07
-4.09915e-07
-4.10669e-07
-4.11415e-07
-4.12149e-07
-4.12872e-07
-4.13581e-07
-4.14277e-07
-4.14956e-07
-4.15619e-07
-4.16264e-07
-4.16891e-07
-4.17496e-07
-4.18082e-07
-4.18644e-07
-4.19185e-07
-4.19699e-07
-4.2019e-07
-4.20653e-07
-4.21089e-07
-4.21496e-07
-4.21875e-07
-4.22221e-07
-4.22538e-07
-4.22822e-07
-4.23074e-07
-4.23291e-07
-4.23473e-07
-4.23618e-07
-4.23728e-07
-4.23799e-07
-4.23832e-07
-4.23825e-07
-4.23778e-07
-4.23691e-07
-4.23562e-07
-4.23391e-07
-4.23177e-07
-4.22919e-07
-4.22616e-07
-4.2227e-07
-4.21877e-07
-4.21438e-07
-4.20952e-07
-4.2042e-07
-4.19839e-07
-4.19211e-07
-4.18532e-07
-4.17806e-07
-4.17028e-07
-4.16201e-07
-4.15323e-07
-4.14394e-07
-4.13412e-07
-4.1238e-07
-4.11294e-07
-4.10156e-07
-4.08964e-07
-4.07719e-07
-4.06419e-07
-4.05067e-07
-4.03657e-07
-4.02195e-07
-4.00675e-07
-3.99101e-07
-3.97468e-07
-3.95782e-07
-3.94035e-07
-3.92234e-07
-3.90372e-07
-3.88455e-07
-3.86476e-07
-3.8444e-07
-3.82342e-07
-3.80185e-07
-3.77965e-07
-3.75686e-07
-3.73341e-07
-3.70935e-07
-3.68462e-07
-3.65927e-07
-3.63322e-07
-3.60652e-07
-3.5791e-07
-3.551e-07
-3.52214e-07
-3.49257e-07
-3.46219e-07
-3.43106e-07
-3.39907e-07
-3.36626e-07
-3.33252e-07
-3.2979e-07
-3.26225e-07
-3.22561e-07
-3.18783e-07
-3.14892e-07
-3.10872e-07
-3.06721e-07
-3.02419e-07
-2.97959e-07
-2.93318e-07
-2.88481e-07
-2.83421e-07
-2.7811e-07
-2.72514e-07
-2.66585e-07
-2.60278e-07
-2.53503e-07
-2.46174e-07
-2.38151e-07
-2.29104e-07
-2.18557e-07
-2.04595e-07
-1.83098e-07
-1.79711e-07
-2.53168e-07
-2.04291e-08
-3.15341e-08
-2.34951e-08
-2.03411e-08
-2.03733e-08
-2.08371e-08
-2.12736e-08
-2.16886e-08
-2.20317e-08
-2.22994e-08
-2.24984e-08
-2.26531e-08
-2.27731e-08
-2.28741e-08
-2.29586e-08
-2.30351e-08
-2.31023e-08
-2.31654e-08
-2.32218e-08
-2.32751e-08
-2.33229e-08
-2.33678e-08
-2.34078e-08
-2.34448e-08
-2.34774e-08
-2.35071e-08
-2.35328e-08
-2.35556e-08
-2.35749e-08
-2.35914e-08
-2.36049e-08
-2.36157e-08
-2.36239e-08
-2.36294e-08
-2.36328e-08
-2.36335e-08
-2.36324e-08
-2.36287e-08
-2.36234e-08
-2.36156e-08
-2.36065e-08
-2.35947e-08
-2.35819e-08
-2.35664e-08
-2.35502e-08
-2.35312e-08
-2.35117e-08
-2.34893e-08
-2.34666e-08
-2.3441e-08
-2.34152e-08
-2.33865e-08
-2.33579e-08
-2.33262e-08
-2.32948e-08
-2.32603e-08
-2.32263e-08
-2.31892e-08
-2.31526e-08
-2.31129e-08
-2.3074e-08
-2.30319e-08
-2.29908e-08
-2.29465e-08
-2.29033e-08
-2.28568e-08
-2.28117e-08
-2.27633e-08
-2.27163e-08
-2.26662e-08
-2.26175e-08
-2.25657e-08
-2.25156e-08
-2.24622e-08
-2.24107e-08
-2.2356e-08
-2.23033e-08
-2.22474e-08
-2.21936e-08
-2.21366e-08
-2.20819e-08
-2.20241e-08
-2.19686e-08
-2.19101e-08
-2.1854e-08
-2.17951e-08
-2.17386e-08
-2.16794e-08
-2.16228e-08
-2.15635e-08
-2.15069e-08
-2.14478e-08
-2.13915e-08
-2.13328e-08
-2.12771e-08
-2.12191e-08
-2.11641e-08
-2.1107e-08
-2.1053e-08
-2.09971e-08
-2.09443e-08
-2.08899e-08
-2.08387e-08
-2.07859e-08
-2.07364e-08
-2.06857e-08
-2.06381e-08
-2.05895e-08
-2.05442e-08
-2.04981e-08
-2.04551e-08
-2.04117e-08
-2.03714e-08
-2.03308e-08
-2.02933e-08
-2.02559e-08
-2.02214e-08
-2.01871e-08
-2.01559e-08
-2.01251e-08
-2.00971e-08
-2.00699e-08
-2.00455e-08
-2.00219e-08
-2.00011e-08
-1.99814e-08
-1.99643e-08
-1.99485e-08
-1.99352e-08
-1.99234e-08
-1.99139e-08
-1.99062e-08
-1.99007e-08
-1.98971e-08
-1.98955e-08
-1.9896e-08
-1.98984e-08
-1.9903e-08
-1.99093e-08
-1.99181e-08
-1.99283e-08
-1.99411e-08
-1.99552e-08
-1.99719e-08
-1.99898e-08
-2.00105e-08
-2.00321e-08
-2.00566e-08
-2.00818e-08
-2.011e-08
-2.01387e-08
-2.01704e-08
-2.02024e-08
-2.02376e-08
-2.02728e-08
-2.03112e-08
-2.03495e-08
-2.03909e-08
-2.0432e-08
-2.04763e-08
-2.05201e-08
-2.0567e-08
-2.06132e-08
-2.06624e-08
-2.07107e-08
-2.0762e-08
-2.08122e-08
-2.08652e-08
-2.0917e-08
-2.09715e-08
-2.10245e-08
-2.10801e-08
-2.1134e-08
-2.11904e-08
-2.12449e-08
-2.13018e-08
-2.13566e-08
-2.14137e-08
-2.14686e-08
-2.15255e-08
-2.15803e-08
-2.16369e-08
-2.16912e-08
-2.17472e-08
-2.18009e-08
-2.18562e-08
-2.1909e-08
-2.19633e-08
-2.20151e-08
-2.20682e-08
-2.21188e-08
-2.21704e-08
-2.22196e-08
-2.22696e-08
-2.23172e-08
-2.23654e-08
-2.24112e-08
-2.24574e-08
-2.25009e-08
-2.25448e-08
-2.25864e-08
-2.26278e-08
-2.26667e-08
-2.27053e-08
-2.27414e-08
-2.27769e-08
-2.28105e-08
-2.2843e-08
-2.28732e-08
-2.29022e-08
-2.29291e-08
-2.29545e-08
-2.29778e-08
-2.29994e-08
-2.3019e-08
-2.30365e-08
-2.30522e-08
-2.30655e-08
-2.3077e-08
-2.30859e-08
-2.30932e-08
-2.30976e-08
-2.31005e-08
-2.31001e-08
-2.30985e-08
-2.30932e-08
-2.30869e-08
-2.30767e-08
-2.30655e-08
-2.30502e-08
-2.30342e-08
-2.30136e-08
-2.29926e-08
-2.29667e-08
-2.29405e-08
-2.29093e-08
-2.28779e-08
-2.28411e-08
-2.28045e-08
-2.27622e-08
-2.27202e-08
-2.26723e-08
-2.26249e-08
-2.25713e-08
-2.25185e-08
-2.24591e-08
-2.24008e-08
-2.23356e-08
-2.22717e-08
-2.22006e-08
-2.21312e-08
-2.20542e-08
-2.19791e-08
-2.18962e-08
-2.18154e-08
-2.17265e-08
-2.16399e-08
-2.15449e-08
-2.14525e-08
-2.13513e-08
-2.1253e-08
-2.11455e-08
-2.10411e-08
-2.09273e-08
-2.08167e-08
-2.06963e-08
-2.05795e-08
-2.04523e-08
-2.0329e-08
-2.0195e-08
-2.0065e-08
-1.9924e-08
-1.97872e-08
-1.9639e-08
-1.94953e-08
-1.93399e-08
-1.91893e-08
-1.90266e-08
-1.88689e-08
-1.86987e-08
-1.85333e-08
-1.83544e-08
-1.81792e-08
-1.79885e-08
-1.77994e-08
-1.75922e-08
-1.73838e-08
-1.71556e-08
-1.69264e-08
-1.66807e-08
-1.64471e-08
-1.61964e-08
-1.60044e-08
-1.5799e-08
-1.58191e-08
-1.57417e-08
-1.40043e-08
-7.02731e-09
-4.00499e-08
-1.9322e-07
-1.12252e-09
1.08012e-08
1.7866e-08
1.93493e-08
1.99374e-08
2.0196e-08
2.02277e-08
2.01632e-08
2.00992e-08
2.00667e-08
2.00638e-08
2.00832e-08
2.01134e-08
2.01489e-08
2.01837e-08
2.02165e-08
2.02452e-08
2.02704e-08
2.02913e-08
2.03092e-08
2.03237e-08
2.03361e-08
2.03458e-08
2.03541e-08
2.03605e-08
2.03657e-08
2.03694e-08
2.03721e-08
2.03736e-08
2.03741e-08
2.03735e-08
2.03718e-08
2.03691e-08
2.03652e-08
2.03602e-08
2.03541e-08
2.0347e-08
2.03386e-08
2.03291e-08
2.03184e-08
2.03067e-08
2.02937e-08
2.02798e-08
2.02645e-08
2.02484e-08
2.02308e-08
2.02125e-08
2.01927e-08
2.01723e-08
2.01504e-08
2.01278e-08
2.01038e-08
2.00793e-08
2.00532e-08
2.00266e-08
1.99985e-08
1.99701e-08
1.994e-08
1.99096e-08
1.98777e-08
1.98454e-08
1.98117e-08
1.97776e-08
1.97421e-08
1.97064e-08
1.96691e-08
1.96317e-08
1.95929e-08
1.9554e-08
1.95136e-08
1.94733e-08
1.94315e-08
1.93899e-08
1.93469e-08
1.93041e-08
1.926e-08
1.92163e-08
1.91712e-08
1.91266e-08
1.90809e-08
1.90356e-08
1.89892e-08
1.89435e-08
1.88967e-08
1.88507e-08
1.88037e-08
1.87575e-08
1.87105e-08
1.86644e-08
1.86175e-08
1.85716e-08
1.8525e-08
1.84795e-08
1.84333e-08
1.83884e-08
1.83429e-08
1.82986e-08
1.8254e-08
1.82106e-08
1.81669e-08
1.81246e-08
1.8082e-08
1.80408e-08
1.79996e-08
1.79598e-08
1.792e-08
1.78817e-08
1.78435e-08
1.78069e-08
1.77704e-08
1.77356e-08
1.77011e-08
1.76682e-08
1.76357e-08
1.76049e-08
1.75746e-08
1.75459e-08
1.75179e-08
1.74916e-08
1.7466e-08
1.74421e-08
1.7419e-08
1.73975e-08
1.7377e-08
1.73582e-08
1.73403e-08
1.7324e-08
1.73089e-08
1.72953e-08
1.72829e-08
1.7272e-08
1.72623e-08
1.72541e-08
1.72472e-08
1.72417e-08
1.72376e-08
1.72348e-08
1.72334e-08
1.72332e-08
1.72345e-08
1.7237e-08
1.72409e-08
1.72459e-08
1.72524e-08
1.72599e-08
1.72689e-08
1.72787e-08
1.72901e-08
1.73023e-08
1.73159e-08
1.73302e-08
1.73461e-08
1.73624e-08
1.73802e-08
1.73985e-08
1.74182e-08
1.74382e-08
1.74596e-08
1.74813e-08
1.75043e-08
1.75274e-08
1.75518e-08
1.75763e-08
1.7602e-08
1.76277e-08
1.76546e-08
1.76815e-08
1.77095e-08
1.77373e-08
1.77663e-08
1.77951e-08
1.7825e-08
1.78545e-08
1.78851e-08
1.79153e-08
1.79466e-08
1.79773e-08
1.80089e-08
1.80399e-08
1.80717e-08
1.81028e-08
1.81345e-08
1.81655e-08
1.81969e-08
1.82274e-08
1.82583e-08
1.8288e-08
1.8318e-08
1.83467e-08
1.83755e-08
1.8403e-08
1.84303e-08
1.84562e-08
1.84818e-08
1.85057e-08
1.85293e-08
1.85512e-08
1.85726e-08
1.85919e-08
1.86109e-08
1.8628e-08
1.86444e-08
1.86586e-08
1.86721e-08
1.86837e-08
1.86939e-08
1.87033e-08
1.87116e-08
1.87179e-08
1.87228e-08
1.87257e-08
1.87271e-08
1.87264e-08
1.87241e-08
1.87197e-08
1.87136e-08
1.87054e-08
1.86953e-08
1.86832e-08
1.8669e-08
1.86528e-08
1.86345e-08
1.86142e-08
1.85916e-08
1.8567e-08
1.854e-08
1.85111e-08
1.84797e-08
1.84463e-08
1.84103e-08
1.83724e-08
1.83317e-08
1.82892e-08
1.82439e-08
1.81966e-08
1.81465e-08
1.80945e-08
1.80394e-08
1.79826e-08
1.79226e-08
1.78608e-08
1.77958e-08
1.7729e-08
1.76589e-08
1.75871e-08
1.75118e-08
1.74348e-08
1.73542e-08
1.72721e-08
1.71862e-08
1.70987e-08
1.70074e-08
1.69146e-08
1.68178e-08
1.67195e-08
1.66171e-08
1.65133e-08
1.64052e-08
1.62957e-08
1.61819e-08
1.60667e-08
1.5947e-08
1.58258e-08
1.57002e-08
1.5573e-08
1.54412e-08
1.53078e-08
1.51696e-08
1.50297e-08
1.48848e-08
1.47381e-08
1.45861e-08
1.4432e-08
1.42723e-08
1.41101e-08
1.39418e-08
1.37704e-08
1.35924e-08
1.34107e-08
1.3222e-08
1.30292e-08
1.28296e-08
1.26261e-08
1.24172e-08
1.22055e-08
1.19905e-08
1.17735e-08
1.15541e-08
1.13298e-08
1.10952e-08
1.08458e-08
1.05634e-08
1.02578e-08
9.81094e-09
9.29328e-09
8.64419e-09
9.51514e-09
1.68231e-08
-1.22481e-08
-1.9536e-07
-4.52674e-09
2.27249e-09
4.45276e-09
4.60958e-09
4.89424e-09
4.98773e-09
4.89458e-09
4.7354e-09
4.59071e-09
4.4799e-09
4.40577e-09
4.35798e-09
4.32827e-09
4.30796e-09
4.29287e-09
4.27922e-09
4.26617e-09
4.25242e-09
4.23841e-09
4.22373e-09
4.20912e-09
4.19439e-09
4.18019e-09
4.16637e-09
4.1534e-09
4.14105e-09
4.12964e-09
4.11894e-09
4.10911e-09
4.09993e-09
4.09148e-09
4.08358e-09
4.07621e-09
4.06928e-09
4.0627e-09
4.05646e-09
4.05042e-09
4.04464e-09
4.03895e-09
4.03344e-09
4.02794e-09
4.02259e-09
4.01715e-09
4.01187e-09
4.00644e-09
4.00114e-09
3.99565e-09
3.9903e-09
3.9847e-09
3.97926e-09
3.97351e-09
3.96792e-09
3.96202e-09
3.95626e-09
3.95013e-09
3.94418e-09
3.93782e-09
3.93164e-09
3.92501e-09
3.91855e-09
3.91163e-09
3.90487e-09
3.89764e-09
3.89057e-09
3.88299e-09
3.87559e-09
3.86766e-09
3.85995e-09
3.85165e-09
3.84361e-09
3.83501e-09
3.82665e-09
3.81775e-09
3.80913e-09
3.79997e-09
3.79114e-09
3.78178e-09
3.77277e-09
3.76327e-09
3.75417e-09
3.74458e-09
3.73541e-09
3.72579e-09
3.71664e-09
3.70703e-09
3.69794e-09
3.6884e-09
3.67939e-09
3.66998e-09
3.6611e-09
3.65182e-09
3.6431e-09
3.63399e-09
3.62545e-09
3.61654e-09
3.60819e-09
3.5995e-09
3.59137e-09
3.5829e-09
3.57499e-09
3.56678e-09
3.55912e-09
3.55116e-09
3.54375e-09
3.53607e-09
3.52892e-09
3.52152e-09
3.51468e-09
3.50757e-09
3.501e-09
3.49423e-09
3.48798e-09
3.48156e-09
3.47563e-09
3.46955e-09
3.46396e-09
3.45827e-09
3.45305e-09
3.44774e-09
3.44289e-09
3.43798e-09
3.43352e-09
3.42903e-09
3.42495e-09
3.42088e-09
3.41719e-09
3.41356e-09
3.41025e-09
3.40703e-09
3.40412e-09
3.40133e-09
3.39879e-09
3.3964e-09
3.39424e-09
3.39224e-09
3.39044e-09
3.38884e-09
3.38738e-09
3.38615e-09
3.38503e-09
3.38415e-09
3.38333e-09
3.3828e-09
3.3823e-09
3.38208e-09
3.38181e-09
3.38192e-09
3.38192e-09
3.38225e-09
3.38247e-09
3.38304e-09
3.38344e-09
3.38421e-09
3.38477e-09
3.38569e-09
3.38637e-09
3.38743e-09
3.3882e-09
3.38937e-09
3.39022e-09
3.3915e-09
3.39247e-09
3.39385e-09
3.39492e-09
3.39649e-09
3.39773e-09
3.39951e-09
3.40097e-09
3.40303e-09
3.4048e-09
3.40718e-09
3.40932e-09
3.41211e-09
3.41466e-09
3.41788e-09
3.42087e-09
3.42454e-09
3.42795e-09
3.43204e-09
3.43586e-09
3.4403e-09
3.44442e-09
3.44913e-09
3.45347e-09
3.45834e-09
3.46277e-09
3.46764e-09
3.47202e-09
3.47677e-09
3.48098e-09
3.48547e-09
3.48929e-09
3.49341e-09
3.49685e-09
3.50044e-09
3.5034e-09
3.50643e-09
3.50877e-09
3.51113e-09
3.51268e-09
3.51428e-09
3.51514e-09
3.51605e-09
3.51602e-09
3.51595e-09
3.51508e-09
3.51414e-09
3.51242e-09
3.51056e-09
3.50798e-09
3.50525e-09
3.50182e-09
3.49823e-09
3.49396e-09
3.48945e-09
3.48431e-09
3.47892e-09
3.47288e-09
3.46659e-09
3.45967e-09
3.45244e-09
3.44465e-09
3.43647e-09
3.42775e-09
3.41864e-09
3.40899e-09
3.39893e-09
3.38834e-09
3.3773e-09
3.36578e-09
3.35373e-09
3.34124e-09
3.32821e-09
3.31471e-09
3.30066e-09
3.28618e-09
3.27108e-09
3.25558e-09
3.23942e-09
3.2229e-09
3.20566e-09
3.18807e-09
3.16974e-09
3.15108e-09
3.13163e-09
3.11189e-09
3.09128e-09
3.07042e-09
3.04866e-09
3.02668e-09
3.00373e-09
2.98059e-09
2.95646e-09
2.93214e-09
2.9068e-09
2.8813e-09
2.85475e-09
2.82805e-09
2.80029e-09
2.77242e-09
2.74348e-09
2.71446e-09
2.68434e-09
2.65419e-09
2.62297e-09
2.59172e-09
2.5594e-09
2.52712e-09
2.49377e-09
2.46041e-09
2.42601e-09
2.39153e-09
2.35599e-09
2.32027e-09
2.28344e-09
2.24622e-09
2.20785e-09
2.16888e-09
2.12887e-09
2.08828e-09
2.04734e-09
2.00661e-09
1.96742e-09
1.93066e-09
1.89861e-09
1.8723e-09
1.85377e-09
1.8434e-09
1.8385e-09
1.83887e-09
1.82634e-09
1.81192e-09
1.74432e-09
1.62036e-09
1.28417e-09
7.43398e-10
1.95178e-09
1.11222e-08
-1.92933e-08
-2.20192e-07
-4.52078e-09
3.1059e-10
1.78923e-09
2.09605e-09
2.40655e-09
2.55754e-09
2.50591e-09
2.39273e-09
2.27294e-09
2.17839e-09
2.10968e-09
2.06362e-09
2.03128e-09
2.00732e-09
1.98672e-09
1.9676e-09
1.94817e-09
1.92845e-09
1.90807e-09
1.8876e-09
1.86704e-09
1.84705e-09
1.82763e-09
1.80928e-09
1.79191e-09
1.77584e-09
1.76093e-09
1.74734e-09
1.73485e-09
1.72356e-09
1.71326e-09
1.70396e-09
1.69546e-09
1.68775e-09
1.68073e-09
1.67429e-09
1.66837e-09
1.66291e-09
1.65786e-09
1.65317e-09
1.64879e-09
1.64467e-09
1.64083e-09
1.63715e-09
1.63374e-09
1.63042e-09
1.62735e-09
1.62434e-09
1.62151e-09
1.61874e-09
1.61613e-09
1.61351e-09
1.61107e-09
1.60858e-09
1.60626e-09
1.60383e-09
1.60154e-09
1.59914e-09
1.59688e-09
1.59443e-09
1.59211e-09
1.58961e-09
1.5872e-09
1.58455e-09
1.58202e-09
1.57923e-09
1.57654e-09
1.57358e-09
1.57072e-09
1.56757e-09
1.56453e-09
1.5612e-09
1.55801e-09
1.55453e-09
1.55118e-09
1.54757e-09
1.54414e-09
1.54045e-09
1.53695e-09
1.53321e-09
1.5297e-09
1.52594e-09
1.52244e-09
1.51874e-09
1.51528e-09
1.51164e-09
1.50827e-09
1.50471e-09
1.50144e-09
1.49799e-09
1.49482e-09
1.49147e-09
1.48843e-09
1.48521e-09
1.48225e-09
1.47912e-09
1.47629e-09
1.47327e-09
1.47054e-09
1.4676e-09
1.46495e-09
1.46212e-09
1.45953e-09
1.45676e-09
1.45425e-09
1.45156e-09
1.44911e-09
1.44648e-09
1.44408e-09
1.44151e-09
1.43917e-09
1.43667e-09
1.43438e-09
1.43194e-09
1.4297e-09
1.42732e-09
1.42514e-09
1.42282e-09
1.42071e-09
1.41847e-09
1.4164e-09
1.41424e-09
1.41222e-09
1.41012e-09
1.40817e-09
1.40615e-09
1.40424e-09
1.40226e-09
1.4004e-09
1.39848e-09
1.39666e-09
1.39477e-09
1.39295e-09
1.39112e-09
1.3893e-09
1.38749e-09
1.38568e-09
1.38388e-09
1.38204e-09
1.38026e-09
1.37839e-09
1.37658e-09
1.37472e-09
1.37288e-09
1.37095e-09
1.36909e-09
1.3671e-09
1.3652e-09
1.36312e-09
1.36116e-09
1.359e-09
1.35693e-09
1.35467e-09
1.3525e-09
1.3501e-09
1.34782e-09
1.34528e-09
1.34289e-09
1.34021e-09
1.33771e-09
1.33493e-09
1.33236e-09
1.32952e-09
1.32691e-09
1.32409e-09
1.32157e-09
1.31885e-09
1.31649e-09
1.31398e-09
1.31187e-09
1.30968e-09
1.30796e-09
1.30616e-09
1.30489e-09
1.30359e-09
1.30281e-09
1.30202e-09
1.30177e-09
1.3015e-09
1.30176e-09
1.30196e-09
1.30267e-09
1.30329e-09
1.30434e-09
1.30525e-09
1.30658e-09
1.30766e-09
1.3091e-09
1.31021e-09
1.31166e-09
1.31272e-09
1.31408e-09
1.31501e-09
1.31613e-09
1.31681e-09
1.31754e-09
1.3178e-09
1.31818e-09
1.31807e-09
1.31796e-09
1.31733e-09
1.31675e-09
1.31566e-09
1.3146e-09
1.31302e-09
1.31147e-09
1.3094e-09
1.30735e-09
1.30478e-09
1.30225e-09
1.29921e-09
1.29621e-09
1.29271e-09
1.28925e-09
1.28531e-09
1.28139e-09
1.277e-09
1.27264e-09
1.26782e-09
1.26301e-09
1.25778e-09
1.25253e-09
1.24688e-09
1.24121e-09
1.23514e-09
1.22903e-09
1.22256e-09
1.21603e-09
1.20914e-09
1.20217e-09
1.19488e-09
1.1875e-09
1.17976e-09
1.17194e-09
1.16379e-09
1.15555e-09
1.14697e-09
1.13828e-09
1.12927e-09
1.12012e-09
1.11065e-09
1.10106e-09
1.09116e-09
1.08108e-09
1.07071e-09
1.06017e-09
1.04934e-09
1.03831e-09
1.02702e-09
1.01549e-09
1.00372e-09
9.91713e-10
9.79437e-10
9.66958e-10
9.54218e-10
9.41266e-10
9.28072e-10
9.14673e-10
9.0105e-10
8.87257e-10
8.73279e-10
8.59138e-10
8.4486e-10
8.305e-10
8.16013e-10
8.0151e-10
7.86946e-10
7.72444e-10
7.57889e-10
7.43469e-10
7.29046e-10
7.14815e-10
7.00545e-10
6.86541e-10
6.72406e-10
6.58623e-10
6.44602e-10
6.31088e-10
6.174e-10
6.04701e-10
5.92531e-10
5.82839e-10
5.75651e-10
5.7385e-10
5.78062e-10
5.91187e-10
6.14044e-10
6.46707e-10
6.89724e-10
7.32505e-10
7.76515e-10
7.94952e-10
7.98448e-10
6.73895e-10
3.99231e-10
-1.10121e-10
9.55066e-10
1.03388e-08
-1.99376e-08
-2.40007e-07
-2.9924e-09
6.78816e-10
2.01723e-09
2.3422e-09
2.7002e-09
2.89384e-09
2.91468e-09
2.85826e-09
2.78545e-09
2.72168e-09
2.6756e-09
2.64373e-09
2.62173e-09
2.60406e-09
2.58807e-09
2.57138e-09
2.55367e-09
2.53437e-09
2.51411e-09
2.49299e-09
2.47177e-09
2.45062e-09
2.43016e-09
2.41049e-09
2.39202e-09
2.37468e-09
2.35873e-09
2.34399e-09
2.33061e-09
2.31836e-09
2.30727e-09
2.29715e-09
2.288e-09
2.27961e-09
2.27197e-09
2.26496e-09
2.25852e-09
2.25254e-09
2.247e-09
2.24181e-09
2.23696e-09
2.23238e-09
2.22805e-09
2.22393e-09
2.22002e-09
2.21627e-09
2.21266e-09
2.20918e-09
2.20583e-09
2.20257e-09
2.19939e-09
2.19627e-09
2.19321e-09
2.19021e-09
2.18722e-09
2.18424e-09
2.18125e-09
2.17828e-09
2.17523e-09
2.1722e-09
2.16905e-09
2.16587e-09
2.16258e-09
2.15926e-09
2.15576e-09
2.15222e-09
2.1485e-09
2.14474e-09
2.1408e-09
2.13679e-09
2.13259e-09
2.12836e-09
2.12395e-09
2.1195e-09
2.1149e-09
2.11027e-09
2.1055e-09
2.10075e-09
2.09587e-09
2.09104e-09
2.0861e-09
2.08124e-09
2.07626e-09
2.0714e-09
2.06647e-09
2.06166e-09
2.05677e-09
2.05201e-09
2.04722e-09
2.04258e-09
2.03787e-09
2.03332e-09
2.02872e-09
2.02428e-09
2.0198e-09
2.01547e-09
2.0111e-09
2.0069e-09
2.00261e-09
1.9985e-09
1.99433e-09
1.99034e-09
1.98627e-09
1.98235e-09
1.97839e-09
1.97458e-09
1.9707e-09
1.96698e-09
1.96319e-09
1.95957e-09
1.95589e-09
1.95237e-09
1.94879e-09
1.94537e-09
1.94193e-09
1.93862e-09
1.9353e-09
1.93211e-09
1.9289e-09
1.92587e-09
1.9228e-09
1.91989e-09
1.91696e-09
1.91419e-09
1.91141e-09
1.90876e-09
1.90611e-09
1.9036e-09
1.9011e-09
1.8987e-09
1.89631e-09
1.89402e-09
1.89177e-09
1.8896e-09
1.88743e-09
1.88533e-09
1.88328e-09
1.88126e-09
1.87929e-09
1.87734e-09
1.87543e-09
1.87354e-09
1.87171e-09
1.86985e-09
1.86806e-09
1.86625e-09
1.86448e-09
1.86268e-09
1.86093e-09
1.85912e-09
1.85737e-09
1.85552e-09
1.85375e-09
1.85185e-09
1.85001e-09
1.84804e-09
1.84616e-09
1.84411e-09
1.84217e-09
1.84007e-09
1.8381e-09
1.836e-09
1.83406e-09
1.83201e-09
1.83016e-09
1.82825e-09
1.82662e-09
1.82496e-09
1.82363e-09
1.82232e-09
1.82143e-09
1.8206e-09
1.82023e-09
1.81995e-09
1.82017e-09
1.82049e-09
1.82134e-09
1.82229e-09
1.82373e-09
1.82529e-09
1.82732e-09
1.82938e-09
1.83186e-09
1.83433e-09
1.8372e-09
1.83996e-09
1.84299e-09
1.84592e-09
1.84908e-09
1.85199e-09
1.85508e-09
1.85784e-09
1.86072e-09
1.8632e-09
1.86569e-09
1.86781e-09
1.86999e-09
1.87169e-09
1.87338e-09
1.87459e-09
1.87579e-09
1.87648e-09
1.87714e-09
1.87726e-09
1.87737e-09
1.87695e-09
1.8765e-09
1.8755e-09
1.87448e-09
1.87294e-09
1.87137e-09
1.86927e-09
1.86713e-09
1.86448e-09
1.86182e-09
1.85863e-09
1.85542e-09
1.85169e-09
1.84796e-09
1.8437e-09
1.83944e-09
1.83465e-09
1.82988e-09
1.82457e-09
1.81926e-09
1.81345e-09
1.80761e-09
1.80127e-09
1.79493e-09
1.78806e-09
1.78118e-09
1.77377e-09
1.76638e-09
1.75845e-09
1.75052e-09
1.74205e-09
1.73357e-09
1.72456e-09
1.71552e-09
1.70595e-09
1.69636e-09
1.68625e-09
1.67609e-09
1.66539e-09
1.65467e-09
1.6434e-09
1.6321e-09
1.62024e-09
1.60837e-09
1.59592e-09
1.58346e-09
1.57043e-09
1.55741e-09
1.5438e-09
1.5302e-09
1.51604e-09
1.5019e-09
1.48722e-09
1.4726e-09
1.45746e-09
1.44241e-09
1.42687e-09
1.41152e-09
1.39571e-09
1.38014e-09
1.36418e-09
1.34858e-09
1.3326e-09
1.31709e-09
1.30126e-09
1.286e-09
1.27041e-09
1.25549e-09
1.24025e-09
1.22575e-09
1.21088e-09
1.19685e-09
1.1825e-09
1.16929e-09
1.15616e-09
1.1451e-09
1.13565e-09
1.13041e-09
1.12981e-09
1.13654e-09
1.15183e-09
1.17625e-09
1.2117e-09
1.25157e-09
1.29675e-09
1.32613e-09
1.34581e-09
1.3114e-09
1.19983e-09
8.52824e-10
1.56173e-10
1.36134e-09
1.18775e-08
-2.11546e-08
-2.56814e-07
-2.09404e-09
6.31124e-10
1.75652e-09
2.03129e-09
2.41349e-09
2.62134e-09
2.69036e-09
2.67751e-09
2.63975e-09
2.60211e-09
2.57339e-09
2.55395e-09
2.53939e-09
2.52695e-09
2.51353e-09
2.49849e-09
2.48091e-09
2.46139e-09
2.44e-09
2.41771e-09
2.39478e-09
2.37205e-09
2.34972e-09
2.32842e-09
2.30817e-09
2.2893e-09
2.27178e-09
2.25572e-09
2.241e-09
2.22768e-09
2.21552e-09
2.20456e-09
2.19455e-09
2.18552e-09
2.17725e-09
2.16974e-09
2.16283e-09
2.15651e-09
2.15063e-09
2.14523e-09
2.14015e-09
2.13544e-09
2.13099e-09
2.12683e-09
2.12287e-09
2.11913e-09
2.11558e-09
2.11219e-09
2.10893e-09
2.10581e-09
2.10277e-09
2.09983e-09
2.097e-09
2.09421e-09
2.09146e-09
2.08873e-09
2.08603e-09
2.08332e-09
2.0806e-09
2.07784e-09
2.07503e-09
2.07215e-09
2.0692e-09
2.06615e-09
2.06304e-09
2.05977e-09
2.05643e-09
2.05293e-09
2.04935e-09
2.0456e-09
2.04176e-09
2.03776e-09
2.0337e-09
2.02947e-09
2.0252e-09
2.02078e-09
2.01632e-09
2.01176e-09
2.00719e-09
2.00252e-09
1.99788e-09
1.99314e-09
1.98847e-09
1.98373e-09
1.97907e-09
1.97437e-09
1.96976e-09
1.9651e-09
1.96055e-09
1.95598e-09
1.95153e-09
1.94705e-09
1.94268e-09
1.9383e-09
1.93404e-09
1.92974e-09
1.92558e-09
1.92137e-09
1.9173e-09
1.91318e-09
1.90921e-09
1.90516e-09
1.90126e-09
1.89732e-09
1.89348e-09
1.88961e-09
1.88585e-09
1.88206e-09
1.87837e-09
1.87467e-09
1.87107e-09
1.86743e-09
1.86392e-09
1.86038e-09
1.85697e-09
1.85354e-09
1.85023e-09
1.84692e-09
1.84372e-09
1.84053e-09
1.83746e-09
1.83438e-09
1.83143e-09
1.82849e-09
1.82567e-09
1.82285e-09
1.82015e-09
1.81744e-09
1.81485e-09
1.81227e-09
1.80978e-09
1.80732e-09
1.80491e-09
1.80254e-09
1.80022e-09
1.79791e-09
1.79567e-09
1.79345e-09
1.79124e-09
1.78908e-09
1.78693e-09
1.78482e-09
1.7827e-09
1.78063e-09
1.77854e-09
1.77648e-09
1.77439e-09
1.77235e-09
1.77024e-09
1.76818e-09
1.76604e-09
1.76396e-09
1.76175e-09
1.75961e-09
1.75734e-09
1.75512e-09
1.75278e-09
1.7505e-09
1.74809e-09
1.74577e-09
1.74334e-09
1.74103e-09
1.73864e-09
1.7364e-09
1.73414e-09
1.73211e-09
1.73008e-09
1.72835e-09
1.72671e-09
1.72543e-09
1.72426e-09
1.72351e-09
1.72295e-09
1.72287e-09
1.72298e-09
1.72359e-09
1.7244e-09
1.72574e-09
1.72724e-09
1.72926e-09
1.7314e-09
1.73402e-09
1.73671e-09
1.73982e-09
1.74292e-09
1.74636e-09
1.74973e-09
1.75338e-09
1.75685e-09
1.76054e-09
1.76394e-09
1.76744e-09
1.77068e-09
1.77401e-09
1.77696e-09
1.77996e-09
1.78252e-09
1.78511e-09
1.78722e-09
1.78935e-09
1.79096e-09
1.79255e-09
1.79367e-09
1.79472e-09
1.79528e-09
1.7958e-09
1.79581e-09
1.7958e-09
1.79527e-09
1.79472e-09
1.79367e-09
1.79259e-09
1.791e-09
1.7894e-09
1.78731e-09
1.7852e-09
1.7826e-09
1.78001e-09
1.7769e-09
1.77382e-09
1.77022e-09
1.76665e-09
1.76259e-09
1.75853e-09
1.75398e-09
1.74946e-09
1.74441e-09
1.73942e-09
1.7339e-09
1.72841e-09
1.72241e-09
1.71645e-09
1.70997e-09
1.70352e-09
1.69655e-09
1.68962e-09
1.68214e-09
1.67473e-09
1.66674e-09
1.65881e-09
1.65035e-09
1.6419e-09
1.63291e-09
1.62396e-09
1.61445e-09
1.60499e-09
1.59496e-09
1.58498e-09
1.57442e-09
1.56392e-09
1.55285e-09
1.54184e-09
1.53025e-09
1.51875e-09
1.50668e-09
1.49471e-09
1.48218e-09
1.46979e-09
1.45687e-09
1.44414e-09
1.4309e-09
1.41791e-09
1.40447e-09
1.39137e-09
1.37787e-09
1.36482e-09
1.35141e-09
1.33857e-09
1.32546e-09
1.31302e-09
1.30037e-09
1.2885e-09
1.27646e-09
1.2653e-09
1.25399e-09
1.24364e-09
1.23319e-09
1.22384e-09
1.21473e-09
1.2072e-09
1.20093e-09
1.19773e-09
1.19815e-09
1.20423e-09
1.21756e-09
1.23888e-09
1.2705e-09
1.30874e-09
1.35562e-09
1.39623e-09
1.4329e-09
1.43613e-09
1.41103e-09
1.26442e-09
9.17069e-10
2.28568e-10
1.29626e-09
1.20895e-08
-2.13411e-08
-2.73256e-07
-1.55577e-09
5.94489e-10
1.40892e-09
1.71009e-09
2.05844e-09
2.28055e-09
2.37873e-09
2.39947e-09
2.39039e-09
2.37347e-09
2.36045e-09
2.35077e-09
2.34341e-09
2.33484e-09
2.32423e-09
2.31012e-09
2.29305e-09
2.27295e-09
2.25088e-09
2.2272e-09
2.203e-09
2.17859e-09
2.15479e-09
2.13177e-09
2.11005e-09
2.08962e-09
2.07078e-09
2.05338e-09
2.03758e-09
2.02314e-09
2.01011e-09
1.99827e-09
1.98761e-09
1.97793e-09
1.96918e-09
1.9612e-09
1.95398e-09
1.94734e-09
1.9413e-09
1.9357e-09
1.93058e-09
1.92577e-09
1.92138e-09
1.91726e-09
1.91343e-09
1.90981e-09
1.90645e-09
1.90326e-09
1.90027e-09
1.89742e-09
1.89473e-09
1.89212e-09
1.88966e-09
1.88727e-09
1.88495e-09
1.88267e-09
1.88045e-09
1.87821e-09
1.876e-09
1.87375e-09
1.87149e-09
1.86915e-09
1.86674e-09
1.86428e-09
1.8617e-09
1.85903e-09
1.85623e-09
1.85333e-09
1.8503e-09
1.84715e-09
1.84386e-09
1.84046e-09
1.83692e-09
1.83328e-09
1.82953e-09
1.82568e-09
1.82176e-09
1.81775e-09
1.81368e-09
1.80957e-09
1.8054e-09
1.80122e-09
1.797e-09
1.79282e-09
1.7886e-09
1.78443e-09
1.78024e-09
1.7761e-09
1.77196e-09
1.7679e-09
1.76383e-09
1.75983e-09
1.75585e-09
1.75193e-09
1.74801e-09
1.74418e-09
1.74032e-09
1.73656e-09
1.73278e-09
1.72908e-09
1.72535e-09
1.72172e-09
1.71805e-09
1.71446e-09
1.71083e-09
1.7073e-09
1.70372e-09
1.70021e-09
1.69669e-09
1.69326e-09
1.68977e-09
1.6864e-09
1.68299e-09
1.67966e-09
1.67633e-09
1.67308e-09
1.66981e-09
1.66666e-09
1.66349e-09
1.66042e-09
1.65735e-09
1.65437e-09
1.6514e-09
1.64854e-09
1.64565e-09
1.64285e-09
1.64008e-09
1.6374e-09
1.6347e-09
1.63208e-09
1.62946e-09
1.62691e-09
1.62435e-09
1.62185e-09
1.61936e-09
1.61688e-09
1.61442e-09
1.61199e-09
1.60956e-09
1.60714e-09
1.60472e-09
1.60231e-09
1.5999e-09
1.59749e-09
1.59506e-09
1.59263e-09
1.59019e-09
1.58771e-09
1.58523e-09
1.5827e-09
1.58016e-09
1.57755e-09
1.57494e-09
1.57223e-09
1.56954e-09
1.56672e-09
1.56395e-09
1.56104e-09
1.55818e-09
1.55523e-09
1.55236e-09
1.54941e-09
1.54659e-09
1.54374e-09
1.54108e-09
1.53845e-09
1.53609e-09
1.5338e-09
1.53186e-09
1.53008e-09
1.5287e-09
1.52753e-09
1.52682e-09
1.52638e-09
1.52645e-09
1.52677e-09
1.52762e-09
1.52874e-09
1.53037e-09
1.53223e-09
1.53459e-09
1.5371e-09
1.54008e-09
1.54316e-09
1.5466e-09
1.55006e-09
1.55381e-09
1.55752e-09
1.56138e-09
1.56511e-09
1.56901e-09
1.57265e-09
1.57642e-09
1.57986e-09
1.58338e-09
1.58651e-09
1.58966e-09
1.59239e-09
1.59515e-09
1.59742e-09
1.59968e-09
1.6015e-09
1.60328e-09
1.60457e-09
1.60584e-09
1.60661e-09
1.6074e-09
1.60769e-09
1.60795e-09
1.60774e-09
1.60752e-09
1.60684e-09
1.60615e-09
1.60497e-09
1.60384e-09
1.60221e-09
1.60063e-09
1.59856e-09
1.59653e-09
1.59403e-09
1.59158e-09
1.58866e-09
1.5858e-09
1.58245e-09
1.57917e-09
1.57542e-09
1.57173e-09
1.56756e-09
1.56347e-09
1.55888e-09
1.55437e-09
1.54935e-09
1.54446e-09
1.53904e-09
1.53372e-09
1.52786e-09
1.52213e-09
1.51587e-09
1.50971e-09
1.50303e-09
1.49643e-09
1.48931e-09
1.4823e-09
1.47474e-09
1.46731e-09
1.45929e-09
1.45143e-09
1.44299e-09
1.43469e-09
1.42582e-09
1.41711e-09
1.40781e-09
1.3987e-09
1.389e-09
1.37951e-09
1.36945e-09
1.35962e-09
1.34927e-09
1.33918e-09
1.32859e-09
1.31833e-09
1.30763e-09
1.29734e-09
1.28665e-09
1.2765e-09
1.26602e-09
1.25618e-09
1.2461e-09
1.23678e-09
1.22732e-09
1.21873e-09
1.21008e-09
1.20241e-09
1.19475e-09
1.18817e-09
1.18167e-09
1.1763e-09
1.17125e-09
1.16761e-09
1.16496e-09
1.16455e-09
1.16693e-09
1.17341e-09
1.18578e-09
1.20454e-09
1.2324e-09
1.26686e-09
1.31093e-09
1.35481e-09
1.40052e-09
1.425e-09
1.43296e-09
1.38514e-09
1.25266e-09
8.76188e-10
6.7257e-11