/*--------------------------------*- C++ -*----------------------------------*\
| =========                 |                                                 |
| \\      /  F ield         | OpenFOAM: The Open Source CFD Toolbox           |
|  \\    /   O peration     | Version:  2512                                  |
|   \\  /    A nd           | Website:  www.openfoam.com                      |
|    \\/     M anipulation  |                                                 |
\*---------------------------------------------------------------------------*/
FoamFile
{
    version     2.0;
    format      ascii;
    arch        "LSB;label=32;scalar=64";
    class       volVectorField;
    location    "2752";
    object      momentError;
}
// * * * * * * * * * * * * * * * * * * * * * * * * * * * * * * * * * * * * * //

dimensions      [0 1 -2 0 0 0 0];

internalField   nonuniform List<vector> 
66422
(
(-1.04641e-08 9.26293e-08 0)
(7.64797e-09 1.75524e-07 0)
(3.67071e-08 1.95985e-07 0)
(4.20207e-08 2.00907e-07 0)
(4.10702e-08 2.0536e-07 0)
(3.92914e-08 2.08945e-07 0)
(3.74903e-08 2.11644e-07 0)
(3.58384e-08 2.13765e-07 0)
(3.43732e-08 2.15488e-07 0)
(3.30768e-08 2.16921e-07 0)
(3.192e-08 2.18135e-07 0)
(3.08756e-08 2.19181e-07 0)
(2.99213e-08 2.20093e-07 0)
(2.90388e-08 2.20896e-07 0)
(2.82133e-08 2.21608e-07 0)
(2.74329e-08 2.22242e-07 0)
(2.66882e-08 2.22811e-07 0)
(2.59715e-08 2.23321e-07 0)
(2.52762e-08 2.2378e-07 0)
(2.45973e-08 2.24192e-07 0)
(2.39303e-08 2.24563e-07 0)
(2.32715e-08 2.24896e-07 0)
(2.26178e-08 2.25194e-07 0)
(2.19668e-08 2.25459e-07 0)
(2.1316e-08 2.25694e-07 0)
(2.06639e-08 2.259e-07 0)
(2.00085e-08 2.2608e-07 0)
(1.93486e-08 2.26234e-07 0)
(1.8683e-08 2.26364e-07 0)
(1.80107e-08 2.26471e-07 0)
(1.73307e-08 2.26556e-07 0)
(1.66423e-08 2.26619e-07 0)
(1.59449e-08 2.26662e-07 0)
(1.52378e-08 2.26686e-07 0)
(1.45206e-08 2.2669e-07 0)
(1.3793e-08 2.26675e-07 0)
(1.30544e-08 2.26642e-07 0)
(1.23046e-08 2.26592e-07 0)
(1.15435e-08 2.26525e-07 0)
(1.07708e-08 2.2644e-07 0)
(9.98641e-09 2.2634e-07 0)
(9.19023e-09 2.26223e-07 0)
(8.38209e-09 2.26091e-07 0)
(7.56211e-09 2.25944e-07 0)
(6.73031e-09 2.25781e-07 0)
(5.8866e-09 2.25604e-07 0)
(5.03118e-09 2.25413e-07 0)
(4.16409e-09 2.25207e-07 0)
(3.28552e-09 2.24987e-07 0)
(2.39569e-09 2.24754e-07 0)
(1.49469e-09 2.24508e-07 0)
(5.82758e-10 2.24248e-07 0)
(-3.39815e-10 2.23976e-07 0)
(-1.27275e-09 2.23691e-07 0)
(-2.21569e-09 2.23393e-07 0)
(-3.16846e-09 2.23084e-07 0)
(-4.13052e-09 2.22763e-07 0)
(-5.10157e-09 2.22431e-07 0)
(-6.08121e-09 2.22087e-07 0)
(-7.06894e-09 2.21732e-07 0)
(-8.06441e-09 2.21367e-07 0)
(-9.06704e-09 2.20991e-07 0)
(-1.00763e-08 2.20605e-07 0)
(-1.10918e-08 2.20209e-07 0)
(-1.21128e-08 2.19804e-07 0)
(-1.31389e-08 2.19389e-07 0)
(-1.41693e-08 2.18966e-07 0)
(-1.52035e-08 2.18534e-07 0)
(-1.62409e-08 2.18094e-07 0)
(-1.72807e-08 2.17645e-07 0)
(-1.83223e-08 2.1719e-07 0)
(-1.9365e-08 2.16727e-07 0)
(-2.04081e-08 2.16257e-07 0)
(-2.14507e-08 2.1578e-07 0)
(-2.24923e-08 2.15298e-07 0)
(-2.3532e-08 2.14809e-07 0)
(-2.45689e-08 2.14316e-07 0)
(-2.56024e-08 2.13817e-07 0)
(-2.66317e-08 2.13314e-07 0)
(-2.76559e-08 2.12807e-07 0)
(-2.86742e-08 2.12296e-07 0)
(-2.96858e-08 2.11782e-07 0)
(-3.06897e-08 2.11265e-07 0)
(-3.16855e-08 2.10746e-07 0)
(-3.26719e-08 2.10225e-07 0)
(-3.36484e-08 2.09703e-07 0)
(-3.4614e-08 2.09179e-07 0)
(-3.55681e-08 2.08655e-07 0)
(-3.65096e-08 2.08132e-07 0)
(-3.7438e-08 2.07608e-07 0)
(-3.83523e-08 2.07086e-07 0)
(-3.92519e-08 2.06566e-07 0)
(-4.01359e-08 2.06047e-07 0)
(-4.10038e-08 2.05531e-07 0)
(-4.18547e-08 2.05018e-07 0)
(-4.2688e-08 2.04509e-07 0)
(-4.3503e-08 2.04003e-07 0)
(-4.42992e-08 2.03503e-07 0)
(-4.50759e-08 2.03007e-07 1.38874e-33)
(-4.58326e-08 2.02517e-07 -1.41452e-33)
(-4.65687e-08 2.02033e-07 -1.43429e-33)
(-4.72839e-08 2.01556e-07 1.4624e-33)
(-4.79776e-08 2.01086e-07 -2.33596e-36)
(-4.86494e-08 2.00624e-07 0)
(-4.9299e-08 2.0017e-07 0)
(-4.99261e-08 1.99724e-07 0)
(-5.05304e-08 1.99288e-07 0)
(-5.11117e-08 1.98861e-07 0)
(-5.16698e-08 1.98444e-07 0)
(-5.22044e-08 1.98038e-07 0)
(-5.27159e-08 1.97643e-07 0)
(-5.32039e-08 1.97259e-07 0)
(-5.36684e-08 1.96886e-07 0)
(-5.41097e-08 1.96526e-07 0)
(-5.45279e-08 1.96179e-07 0)
(-5.49231e-08 1.95844e-07 0)
(-5.52956e-08 1.95523e-07 0)
(-5.56456e-08 1.95215e-07 0)
(-5.59737e-08 1.94921e-07 0)
(-5.628e-08 1.94642e-07 0)
(-5.65652e-08 1.94377e-07 0)
(-5.68298e-08 1.94127e-07 0)
(-5.70742e-08 1.93892e-07 0)
(-5.72992e-08 1.93672e-07 0)
(-5.75054e-08 1.93468e-07 0)
(-5.76935e-08 1.93279e-07 0)
(-5.78644e-08 1.93107e-07 0)
(-5.80187e-08 1.9295e-07 0)
(-5.81575e-08 1.9281e-07 0)
(-5.82816e-08 1.92685e-07 0)
(-5.83919e-08 1.92577e-07 0)
(-5.84895e-08 1.92486e-07 0)
(-5.85755e-08 1.92411e-07 0)
(-5.86509e-08 1.92352e-07 0)
(-5.87168e-08 1.9231e-07 0)
(-5.87746e-08 1.92285e-07 0)
(-5.88252e-08 1.92275e-07 0)
(-5.88701e-08 1.92282e-07 0)
(-5.89104e-08 1.92306e-07 0)
(-5.89475e-08 1.92345e-07 0)
(-5.89827e-08 1.924e-07 0)
(-5.90175e-08 1.92472e-07 0)
(-5.9053e-08 1.92559e-07 0)
(-5.9091e-08 1.92661e-07 0)
(-5.91327e-08 1.92779e-07 0)
(-5.91796e-08 1.92911e-07 0)
(-5.92333e-08 1.93059e-07 0)
(-5.92952e-08 1.93221e-07 0)
(-5.9367e-08 1.93397e-07 0)
(-5.945e-08 1.93587e-07 0)
(-5.95461e-08 1.93791e-07 0)
(-5.96566e-08 1.94008e-07 0)
(-5.97831e-08 1.94238e-07 0)
(-5.99276e-08 1.9448e-07 0)
(-6.00912e-08 1.94735e-07 0)
(-6.02759e-08 1.95001e-07 0)
(-6.04831e-08 1.95279e-07 0)
(-6.07147e-08 1.95567e-07 0)
(-6.09722e-08 1.95866e-07 0)
(-6.12573e-08 1.96175e-07 0)
(-6.15717e-08 1.96493e-07 0)
(-6.19169e-08 1.9682e-07 0)
(-6.22948e-08 1.97156e-07 0)
(-6.2707e-08 1.975e-07 0)
(-6.31551e-08 1.97851e-07 0)
(-6.36409e-08 1.9821e-07 0)
(-6.41659e-08 1.98574e-07 0)
(-6.4732e-08 1.98945e-07 0)
(-6.53407e-08 1.99321e-07 0)
(-6.59938e-08 1.99701e-07 0)
(-6.66929e-08 2.00086e-07 0)
(-6.74395e-08 2.00475e-07 0)
(-6.82355e-08 2.00866e-07 0)
(-6.90824e-08 2.0126e-07 0)
(-6.9982e-08 2.01656e-07 0)
(-7.09357e-08 2.02053e-07 0)
(-7.19454e-08 2.02451e-07 0)
(-7.30124e-08 2.02849e-07 0)
(-7.41386e-08 2.03247e-07 0)
(-7.53254e-08 2.03643e-07 0)
(-7.65744e-08 2.04038e-07 0)
(-7.78874e-08 2.0443e-07 0)
(-7.92657e-08 2.0482e-07 0)
(-8.0711e-08 2.05206e-07 0)
(-8.22249e-08 2.05588e-07 0)
(-8.38088e-08 2.05965e-07 0)
(-8.54644e-08 2.06337e-07 0)
(-8.71932e-08 2.06703e-07 0)
(-8.89966e-08 2.07063e-07 0)
(-9.08763e-08 2.07415e-07 0)
(-9.28335e-08 2.0776e-07 0)
(-9.487e-08 2.08097e-07 0)
(-9.69871e-08 2.08425e-07 0)
(-9.91865e-08 2.08743e-07 0)
(-1.01469e-07 2.09052e-07 0)
(-1.03837e-07 2.0935e-07 0)
(-1.06291e-07 2.09637e-07 0)
(-1.08834e-07 2.09912e-07 0)
(-1.11465e-07 2.10175e-07 0)
(-1.14187e-07 2.10426e-07 0)
(-1.17002e-07 2.10663e-07 0)
(-1.1991e-07 2.10886e-07 0)
(-1.22912e-07 2.11095e-07 0)
(-1.26011e-07 2.1129e-07 0)
(-1.29208e-07 2.11469e-07 0)
(-1.32501e-07 2.11634e-07 0)
(-1.35895e-07 2.11779e-07 0)
(-1.39391e-07 2.11907e-07 0)
(-1.4299e-07 2.12018e-07 0)
(-1.46694e-07 2.12111e-07 0)
(-1.50503e-07 2.12187e-07 0)
(-1.54419e-07 2.12244e-07 0)
(-1.58443e-07 2.12282e-07 0)
(-1.62577e-07 2.123e-07 0)
(-1.66821e-07 2.12299e-07 0)
(-1.71177e-07 2.12278e-07 0)
(-1.75647e-07 2.12236e-07 0)
(-1.80232e-07 2.12174e-07 0)
(-1.84933e-07 2.1209e-07 0)
(-1.8975e-07 2.11985e-07 0)
(-1.94687e-07 2.11857e-07 0)
(-1.99743e-07 2.11707e-07 0)
(-2.04921e-07 2.11535e-07 0)
(-2.10221e-07 2.1134e-07 0)
(-2.15645e-07 2.11121e-07 0)
(-2.21194e-07 2.10879e-07 0)
(-2.2687e-07 2.10613e-07 0)
(-2.32675e-07 2.10323e-07 0)
(-2.38608e-07 2.10008e-07 0)
(-2.44673e-07 2.09669e-07 0)
(-2.5087e-07 2.09305e-07 0)
(-2.572e-07 2.08915e-07 0)
(-2.63667e-07 2.085e-07 0)
(-2.70269e-07 2.0806e-07 0)
(-2.77011e-07 2.07593e-07 0)
(-2.83892e-07 2.07101e-07 0)
(-2.90915e-07 2.06582e-07 0)
(-2.98081e-07 2.06036e-07 0)
(-3.05392e-07 2.05464e-07 0)
(-3.1285e-07 2.04864e-07 0)
(-3.20456e-07 2.04238e-07 0)
(-3.28213e-07 2.03583e-07 0)
(-3.36122e-07 2.02902e-07 0)
(-3.44185e-07 2.02192e-07 0)
(-3.52405e-07 2.01455e-07 0)
(-3.60783e-07 2.00689e-07 0)
(-3.69321e-07 1.99895e-07 0)
(-3.78022e-07 1.99072e-07 0)
(-3.86889e-07 1.9822e-07 0)
(-3.95922e-07 1.97339e-07 0)
(-4.05126e-07 1.96429e-07 0)
(-4.14503e-07 1.95489e-07 0)
(-4.24056e-07 1.9452e-07 0)
(-4.33786e-07 1.93521e-07 0)
(-4.43699e-07 1.92491e-07 0)
(-4.53797e-07 1.9143e-07 0)
(-4.64082e-07 1.90339e-07 0)
(-4.7456e-07 1.89217e-07 0)
(-4.85234e-07 1.88062e-07 0)
(-4.96108e-07 1.86876e-07 0)
(-5.07186e-07 1.85657e-07 0)
(-5.18474e-07 1.84406e-07 0)
(-5.29976e-07 1.83121e-07 0)
(-5.41699e-07 1.81801e-07 0)
(-5.53647e-07 1.80447e-07 0)
(-5.65827e-07 1.79058e-07 0)
(-5.78248e-07 1.77632e-07 0)
(-5.90915e-07 1.76168e-07 0)
(-6.03839e-07 1.74667e-07 0)
(-6.17027e-07 1.73126e-07 0)
(-6.30492e-07 1.71544e-07 0)
(-6.44243e-07 1.6992e-07 0)
(-6.58295e-07 1.68251e-07 0)
(-6.72662e-07 1.66537e-07 0)
(-6.87359e-07 1.64774e-07 0)
(-7.02406e-07 1.62961e-07 0)
(-7.17823e-07 1.61094e-07 0)
(-7.33635e-07 1.5917e-07 0)
(-7.49869e-07 1.57185e-07 0)
(-7.66556e-07 1.55134e-07 0)
(-7.83733e-07 1.53012e-07 0)
(-8.01445e-07 1.50814e-07 0)
(-8.19741e-07 1.48531e-07 0)
(-8.38682e-07 1.46154e-07 0)
(-8.58339e-07 1.43674e-07 0)
(-8.788e-07 1.41076e-07 0)
(-9.00168e-07 1.38347e-07 0)
(-9.22573e-07 1.35465e-07 0)
(-9.46175e-07 1.32406e-07 0)
(-9.71174e-07 1.29139e-07 0)
(-9.97827e-07 1.25621e-07 0)
(-1.02647e-06 1.21796e-07 0)
(-1.05754e-06 1.17585e-07 0)
(-1.09165e-06 1.12873e-07 0)
(-1.12966e-06 1.07495e-07 0)
(-1.17298e-06 1.01211e-07 0)
(-1.2236e-06 9.3286e-08 0)
(-1.28211e-06 8.16761e-08 0)
(-1.35081e-06 7.43013e-08 0)
(-1.13654e-06 7.34189e-08 0)
(2.04797e-09 8.49624e-08 0)
(4.29533e-08 1.76274e-07 0)
(6.5821e-08 2.16287e-07 0)
(7.48346e-08 2.32463e-07 0)
(7.78246e-08 2.40458e-07 0)
(7.81589e-08 2.45058e-07 0)
(7.72184e-08 2.48026e-07 0)
(7.57078e-08 2.50154e-07 0)
(7.39801e-08 2.51808e-07 0)
(7.21998e-08 2.53167e-07 0)
(7.04408e-08 2.54323e-07 0)
(6.87327e-08 2.55331e-07 0)
(6.70842e-08 2.56223e-07 0)
(6.5493e-08 2.57023e-07 0)
(6.39531e-08 2.57743e-07 0)
(6.24561e-08 2.58396e-07 0)
(6.09937e-08 2.58989e-07 0)
(5.95579e-08 2.59529e-07 0)
(5.81414e-08 2.60022e-07 0)
(5.67377e-08 2.60471e-07 0)
(5.53408e-08 2.6088e-07 0)
(5.39458e-08 2.61251e-07 0)
(5.25481e-08 2.61587e-07 0)
(5.11437e-08 2.61891e-07 0)
(4.97293e-08 2.62163e-07 0)
(4.83019e-08 2.62406e-07 0)
(4.68588e-08 2.62621e-07 0)
(4.53977e-08 2.62809e-07 0)
(4.39167e-08 2.62971e-07 0)
(4.24141e-08 2.63109e-07 0)
(4.08882e-08 2.63222e-07 0)
(3.93378e-08 2.63312e-07 0)
(3.77618e-08 2.63379e-07 0)
(3.61592e-08 2.63424e-07 0)
(3.45292e-08 2.63448e-07 0)
(3.2871e-08 2.63451e-07 0)
(3.1184e-08 2.63433e-07 0)
(2.94679e-08 2.63396e-07 0)
(2.77221e-08 2.63338e-07 0)
(2.59465e-08 2.63262e-07 0)
(2.41409e-08 2.63167e-07 0)
(2.2305e-08 2.63053e-07 0)
(2.04389e-08 2.62921e-07 0)
(1.85426e-08 2.62772e-07 0)
(1.66163e-08 2.62604e-07 0)
(1.466e-08 2.6242e-07 0)
(1.26741e-08 2.62218e-07 0)
(1.06589e-08 2.62e-07 0)
(8.61468e-09 2.61765e-07 0)
(6.54187e-09 2.61514e-07 0)
(4.44117e-09 2.61247e-07 0)
(2.31289e-09 2.60964e-07 0)
(1.57789e-10 2.60665e-07 0)
(-2.02345e-09 2.60352e-07 0)
(-4.2302e-09 2.60023e-07 0)
(-6.46148e-09 2.59679e-07 0)
(-8.71659e-09 2.59321e-07 0)
(-1.09946e-08 2.58949e-07 0)
(-1.32945e-08 2.58563e-07 0)
(-1.56152e-08 2.58163e-07 0)
(-1.79558e-08 2.57749e-07 0)
(-2.03149e-08 2.57322e-07 0)
(-2.26915e-08 2.56883e-07 0)
(-2.50843e-08 2.5643e-07 0)
(-2.74919e-08 2.55966e-07 0)
(-2.9913e-08 2.55489e-07 0)
(-3.23463e-08 2.55001e-07 0)
(-3.47902e-08 2.54501e-07 0)
(-3.72432e-08 2.5399e-07 0)
(-3.97038e-08 2.53469e-07 0)
(-4.21704e-08 2.52937e-07 0)
(-4.46412e-08 2.52395e-07 0)
(-4.71147e-08 2.51844e-07 0)
(-4.95891e-08 2.51284e-07 0)
(-5.20625e-08 2.50714e-07 0)
(-5.45334e-08 2.50137e-07 0)
(-5.69996e-08 2.49551e-07 0)
(-5.94596e-08 2.48958e-07 0)
(-6.19112e-08 2.48358e-07 0)
(-6.43527e-08 2.47752e-07 0)
(-6.67821e-08 2.47139e-07 0)
(-6.91975e-08 2.46521e-07 0)
(-7.1597e-08 2.45898e-07 0)
(-7.39785e-08 2.45271e-07 0)
(-7.63402e-08 2.44639e-07 0)
(-7.86801e-08 2.44004e-07 0)
(-8.09963e-08 2.43366e-07 0)
(-8.32869e-08 2.42726e-07 0)
(-8.55498e-08 2.42085e-07 0)
(-8.77834e-08 2.41442e-07 0)
(-8.99858e-08 2.40799e-07 0)
(-9.2155e-08 2.40156e-07 0)
(-9.42894e-08 2.39514e-07 0)
(-9.63873e-08 2.38873e-07 0)
(-9.84469e-08 2.38234e-07 0)
(-1.00467e-07 2.37598e-07 0)
(-1.02445e-07 2.36965e-07 0)
(-1.04381e-07 2.36337e-07 0)
(-1.06272e-07 2.35713e-07 8.60154e-50)
(-1.08117e-07 2.35094e-07 -9.36296e-36)
(-1.09916e-07 2.34482e-07 9.36303e-36)
(-1.11666e-07 2.33876e-07 2.24364e-49)
(-1.13368e-07 2.33277e-07 0)
(-1.15019e-07 2.32687e-07 0)
(-1.16619e-07 2.32105e-07 0)
(-1.18167e-07 2.31532e-07 0)
(-1.19663e-07 2.3097e-07 0)
(-1.21106e-07 2.30418e-07 0)
(-1.22495e-07 2.29877e-07 0)
(-1.2383e-07 2.29348e-07 0)
(-1.25111e-07 2.28832e-07 0)
(-1.26339e-07 2.28329e-07 0)
(-1.27511e-07 2.27839e-07 0)
(-1.2863e-07 2.27364e-07 0)
(-1.29695e-07 2.26903e-07 0)
(-1.30707e-07 2.26458e-07 0)
(-1.31665e-07 2.26029e-07 0)
(-1.32572e-07 2.25616e-07 0)
(-1.33427e-07 2.2522e-07 0)
(-1.34231e-07 2.24841e-07 0)
(-1.34986e-07 2.2448e-07 0)
(-1.35693e-07 2.24138e-07 0)
(-1.36352e-07 2.23813e-07 0)
(-1.36966e-07 2.23508e-07 0)
(-1.37535e-07 2.23222e-07 0)
(-1.38062e-07 2.22956e-07 0)
(-1.38549e-07 2.2271e-07 0)
(-1.38996e-07 2.22484e-07 0)
(-1.39407e-07 2.22278e-07 0)
(-1.39782e-07 2.22093e-07 0)
(-1.40126e-07 2.21929e-07 0)
(-1.40439e-07 2.21786e-07 0)
(-1.40724e-07 2.21664e-07 0)
(-1.40983e-07 2.21563e-07 0)
(-1.41221e-07 2.21484e-07 0)
(-1.41438e-07 2.21426e-07 0)
(-1.41638e-07 2.2139e-07 0)
(-1.41823e-07 2.21375e-07 0)
(-1.41998e-07 2.21381e-07 0)
(-1.42164e-07 2.21408e-07 0)
(-1.42324e-07 2.21457e-07 0)
(-1.42483e-07 2.21527e-07 0)
(-1.42644e-07 2.21618e-07 0)
(-1.42808e-07 2.2173e-07 0)
(-1.42981e-07 2.21862e-07 0)
(-1.43165e-07 2.22014e-07 0)
(-1.43365e-07 2.22187e-07 0)
(-1.43582e-07 2.2238e-07 0)
(-1.43822e-07 2.22592e-07 0)
(-1.44088e-07 2.22823e-07 0)
(-1.44383e-07 2.23073e-07 0)
(-1.44711e-07 2.23342e-07 0)
(-1.45076e-07 2.23629e-07 0)
(-1.45482e-07 2.23934e-07 0)
(-1.45933e-07 2.24256e-07 0)
(-1.46431e-07 2.24595e-07 0)
(-1.46982e-07 2.2495e-07 0)
(-1.4759e-07 2.25321e-07 0)
(-1.48257e-07 2.25708e-07 0)
(-1.48989e-07 2.26109e-07 0)
(-1.49788e-07 2.26525e-07 0)
(-1.50659e-07 2.26955e-07 0)
(-1.51606e-07 2.27398e-07 0)
(-1.52633e-07 2.27853e-07 0)
(-1.53744e-07 2.28321e-07 0)
(-1.54943e-07 2.288e-07 0)
(-1.56233e-07 2.2929e-07 0)
(-1.57619e-07 2.2979e-07 0)
(-1.59105e-07 2.303e-07 0)
(-1.60694e-07 2.30819e-07 0)
(-1.62391e-07 2.31346e-07 0)
(-1.642e-07 2.31881e-07 0)
(-1.66124e-07 2.32422e-07 0)
(-1.68168e-07 2.3297e-07 0)
(-1.70335e-07 2.33523e-07 0)
(-1.72629e-07 2.34081e-07 0)
(-1.75055e-07 2.34644e-07 0)
(-1.77615e-07 2.3521e-07 0)
(-1.80314e-07 2.35778e-07 0)
(-1.83156e-07 2.36349e-07 0)
(-1.86145e-07 2.36921e-07 0)
(-1.89284e-07 2.37494e-07 0)
(-1.92576e-07 2.38067e-07 0)
(-1.96027e-07 2.38638e-07 0)
(-1.99639e-07 2.39209e-07 0)
(-2.03417e-07 2.39777e-07 0)
(-2.07363e-07 2.40342e-07 0)
(-2.11482e-07 2.40904e-07 0)
(-2.15777e-07 2.41462e-07 0)
(-2.20252e-07 2.42014e-07 0)
(-2.24911e-07 2.42561e-07 0)
(-2.29756e-07 2.43102e-07 0)
(-2.34793e-07 2.43635e-07 0)
(-2.40023e-07 2.44161e-07 0)
(-2.45452e-07 2.44678e-07 0)
(-2.51081e-07 2.45187e-07 0)
(-2.56916e-07 2.45685e-07 0)
(-2.62958e-07 2.46173e-07 0)
(-2.69212e-07 2.4665e-07 0)
(-2.75681e-07 2.47116e-07 0)
(-2.82368e-07 2.47569e-07 0)
(-2.89277e-07 2.48009e-07 0)
(-2.9641e-07 2.48436e-07 0)
(-3.03772e-07 2.48849e-07 0)
(-3.11365e-07 2.49248e-07 0)
(-3.19194e-07 2.4963e-07 0)
(-3.27262e-07 2.50001e-07 0)
(-3.35571e-07 2.50355e-07 0)
(-3.44125e-07 2.50693e-07 0)
(-3.52927e-07 2.51013e-07 0)
(-3.6198e-07 2.51314e-07 0)
(-3.71287e-07 2.51597e-07 0)
(-3.80852e-07 2.5186e-07 0)
(-3.90677e-07 2.52104e-07 0)
(-4.00765e-07 2.52328e-07 0)
(-4.11121e-07 2.52531e-07 0)
(-4.21746e-07 2.52713e-07 0)
(-4.32644e-07 2.52873e-07 0)
(-4.43819e-07 2.53012e-07 0)
(-4.55273e-07 2.53128e-07 0)
(-4.6701e-07 2.53222e-07 0)
(-4.79033e-07 2.53292e-07 0)
(-4.91345e-07 2.53339e-07 0)
(-5.03949e-07 2.53363e-07 0)
(-5.16849e-07 2.53362e-07 0)
(-5.30047e-07 2.53337e-07 0)
(-5.43548e-07 2.53287e-07 0)
(-5.57355e-07 2.53212e-07 0)
(-5.71471e-07 2.53112e-07 0)
(-5.85899e-07 2.52986e-07 0)
(-6.00643e-07 2.52835e-07 0)
(-6.15706e-07 2.52657e-07 0)
(-6.31093e-07 2.52453e-07 0)
(-6.46806e-07 2.52223e-07 0)
(-6.62851e-07 2.51965e-07 0)
(-6.79229e-07 2.51681e-07 0)
(-6.95946e-07 2.5137e-07 0)
(-7.13005e-07 2.51032e-07 0)
(-7.30411e-07 2.50666e-07 0)
(-7.48167e-07 2.50272e-07 0)
(-7.66279e-07 2.49851e-07 0)
(-7.84749e-07 2.49402e-07 0)
(-8.03584e-07 2.48926e-07 0)
(-8.22787e-07 2.48421e-07 0)
(-8.42363e-07 2.47888e-07 0)
(-8.62318e-07 2.47326e-07 0)
(-8.82657e-07 2.46737e-07 0)
(-9.03385e-07 2.46119e-07 0)
(-9.24508e-07 2.45472e-07 0)
(-9.46031e-07 2.44798e-07 0)
(-9.6796e-07 2.44094e-07 0)
(-9.90303e-07 2.43363e-07 0)
(-1.01307e-06 2.42602e-07 0)
(-1.03625e-06 2.41813e-07 0)
(-1.05988e-06 2.40996e-07 0)
(-1.08394e-06 2.4015e-07 0)
(-1.10846e-06 2.39276e-07 0)
(-1.13343e-06 2.38373e-07 0)
(-1.15887e-06 2.37442e-07 0)
(-1.18479e-06 2.36482e-07 0)
(-1.21119e-06 2.35495e-07 0)
(-1.2381e-06 2.34479e-07 0)
(-1.26551e-06 2.33435e-07 0)
(-1.29345e-06 2.32364e-07 0)
(-1.32193e-06 2.31265e-07 0)
(-1.35096e-06 2.30139e-07 0)
(-1.38056e-06 2.28985e-07 0)
(-1.41075e-06 2.27806e-07 0)
(-1.44155e-06 2.266e-07 0)
(-1.47298e-06 2.25368e-07 0)
(-1.50506e-06 2.24111e-07 0)
(-1.53782e-06 2.2283e-07 0)
(-1.57129e-06 2.21525e-07 0)
(-1.60551e-06 2.20198e-07 0)
(-1.64051e-06 2.1885e-07 0)
(-1.67633e-06 2.17483e-07 0)
(-1.71302e-06 2.16099e-07 0)
(-1.75064e-06 2.147e-07 0)
(-1.78925e-06 2.1329e-07 0)
(-1.82892e-06 2.11873e-07 0)
(-1.86974e-06 2.10455e-07 0)
(-1.9118e-06 2.0904e-07 0)
(-1.95522e-06 2.07639e-07 0)
(-2.00014e-06 2.06262e-07 0)
(-2.0467e-06 2.04922e-07 0)
(-2.09512e-06 2.03638e-07 0)
(-2.14561e-06 2.02434e-07 0)
(-2.19846e-06 2.0134e-07 0)
(-2.25401e-06 2.00399e-07 0)
(-2.31269e-06 1.99669e-07 0)
(-2.37503e-06 1.99231e-07 0)
(-2.44171e-06 1.992e-07 0)
(-2.51357e-06 1.99744e-07 0)
(-2.59173e-06 2.01116e-07 0)
(-2.67765e-06 2.03704e-07 0)
(-2.77352e-06 2.08123e-07 0)
(-2.8811e-06 2.15187e-07 0)
(-2.99718e-06 2.25694e-07 0)
(-3.11104e-06 2.40577e-07 0)
(-2.45692e-06 2.01364e-07 0)
(-3.88829e-09 6.7514e-08 0)
(3.63486e-08 1.52274e-07 0)
(6.41961e-08 2.01997e-07 0)
(8.22999e-08 2.27844e-07 0)
(9.32422e-08 2.41883e-07 0)
(9.94053e-08 2.49875e-07 0)
(1.02541e-07 2.54703e-07 0)
(1.03818e-07 2.57837e-07 0)
(1.0396e-07 2.60028e-07 0)
(1.03409e-07 2.61668e-07 0)
(1.02428e-07 2.62968e-07 0)
(1.0118e-07 2.64048e-07 0)
(9.97605e-08 2.64974e-07 0)
(9.82297e-08 2.65788e-07 0)
(9.66223e-08 2.66516e-07 0)
(9.49592e-08 2.67174e-07 0)
(9.32522e-08 2.67774e-07 0)
(9.15078e-08 2.68323e-07 0)
(8.97291e-08 2.68828e-07 0)
(8.79169e-08 2.69293e-07 0)
(8.60708e-08 2.69721e-07 0)
(8.41899e-08 2.70114e-07 0)
(8.22726e-08 2.70476e-07 0)
(8.03172e-08 2.70807e-07 0)
(7.8322e-08 2.71109e-07 0)
(7.62854e-08 2.71384e-07 0)
(7.42056e-08 2.71633e-07 0)
(7.20811e-08 2.71856e-07 0)
(6.99105e-08 2.72054e-07 0)
(6.76925e-08 2.72228e-07 0)
(6.54261e-08 2.72379e-07 0)
(6.31101e-08 2.72508e-07 0)
(6.07436e-08 2.72614e-07 0)
(5.8326e-08 2.72699e-07 0)
(5.58565e-08 2.72762e-07 0)
(5.33347e-08 2.72805e-07 0)
(5.07601e-08 2.72827e-07 0)
(4.81323e-08 2.72829e-07 0)
(4.54512e-08 2.72812e-07 0)
(4.27168e-08 2.72774e-07 0)
(3.99288e-08 2.72718e-07 0)
(3.70875e-08 2.72643e-07 0)
(3.4193e-08 2.72549e-07 0)
(3.12455e-08 2.72436e-07 0)
(2.82455e-08 2.72305e-07 0)
(2.51932e-08 2.72156e-07 0)
(2.20895e-08 2.71989e-07 0)
(1.89346e-08 2.71805e-07 0)
(1.57295e-08 2.71603e-07 0)
(1.24749e-08 2.71383e-07 0)
(9.17162e-09 2.71147e-07 0)
(5.82068e-09 2.70893e-07 0)
(2.42309e-09 2.70623e-07 0)
(-1.01994e-09 2.70336e-07 0)
(-4.5073e-09 2.70033e-07 0)
(-8.03761e-09 2.69713e-07 0)
(-1.16095e-08 2.69378e-07 0)
(-1.52214e-08 2.69026e-07 0)
(-1.88718e-08 2.68659e-07 0)
(-2.25591e-08 2.68276e-07 0)
(-2.62815e-08 2.67878e-07 0)
(-3.00371e-08 2.67465e-07 0)
(-3.38242e-08 2.67038e-07 0)
(-3.76405e-08 2.66595e-07 0)
(-4.14841e-08 2.66138e-07 0)
(-4.53528e-08 2.65667e-07 0)
(-4.92443e-08 2.65182e-07 0)
(-5.31564e-08 2.64684e-07 0)
(-5.70865e-08 2.64172e-07 0)
(-6.10323e-08 2.63647e-07 0)
(-6.49911e-08 2.6311e-07 0)
(-6.89603e-08 2.6256e-07 0)
(-7.29373e-08 2.61998e-07 0)
(-7.69193e-08 2.61424e-07 0)
(-8.09035e-08 2.60839e-07 0)
(-8.48869e-08 2.60244e-07 0)
(-8.88668e-08 2.59637e-07 0)
(-9.28401e-08 2.59021e-07 0)
(-9.68038e-08 2.58395e-07 0)
(-1.00755e-07 2.5776e-07 0)
(-1.0469e-07 2.57116e-07 0)
(-1.08607e-07 2.56464e-07 0)
(-1.12502e-07 2.55804e-07 0)
(-1.16371e-07 2.55137e-07 0)
(-1.20213e-07 2.54464e-07 0)
(-1.24023e-07 2.53784e-07 0)
(-1.278e-07 2.53099e-07 0)
(-1.31538e-07 2.5241e-07 0)
(-1.35236e-07 2.51716e-07 0)
(-1.38891e-07 2.51018e-07 0)
(-1.42499e-07 2.50318e-07 0)
(-1.46058e-07 2.49616e-07 0)
(-1.49565e-07 2.48912e-07 0)
(-1.53016e-07 2.48208e-07 0)
(-1.5641e-07 2.47503e-07 0)
(-1.59744e-07 2.46799e-07 0)
(-1.63014e-07 2.46097e-07 0)
(-1.6622e-07 2.45397e-07 0)
(-1.69357e-07 2.44699e-07 0)
(-1.72425e-07 2.44006e-07 0)
(-1.75421e-07 2.43317e-07 0)
(-1.78342e-07 2.42634e-07 0)
(-1.81188e-07 2.41956e-07 0)
(-1.83957e-07 2.41286e-07 0)
(-1.86647e-07 2.40623e-07 0)
(-1.89256e-07 2.39969e-07 0)
(-1.91784e-07 2.39325e-07 0)
(-1.9423e-07 2.3869e-07 0)
(-1.96593e-07 2.38067e-07 0)
(-1.98871e-07 2.37455e-07 0)
(-2.01065e-07 2.36856e-07 0)
(-2.03175e-07 2.3627e-07 0)
(-2.052e-07 2.35699e-07 0)
(-2.0714e-07 2.35142e-07 0)
(-2.08996e-07 2.34601e-07 0)
(-2.10768e-07 2.34076e-07 0)
(-2.12457e-07 2.33568e-07 0)
(-2.14063e-07 2.33078e-07 0)
(-2.15589e-07 2.32606e-07 0)
(-2.17035e-07 2.32153e-07 0)
(-2.18403e-07 2.3172e-07 0)
(-2.19694e-07 2.31306e-07 0)
(-2.20911e-07 2.30914e-07 0)
(-2.22055e-07 2.30543e-07 0)
(-2.23129e-07 2.30194e-07 0)
(-2.24135e-07 2.29867e-07 0)
(-2.25077e-07 2.29563e-07 0)
(-2.25957e-07 2.29282e-07 0)
(-2.26777e-07 2.29025e-07 0)
(-2.27542e-07 2.28791e-07 0)
(-2.28255e-07 2.28582e-07 0)
(-2.28919e-07 2.28398e-07 0)
(-2.29538e-07 2.28238e-07 0)
(-2.30116e-07 2.28104e-07 0)
(-2.30658e-07 2.27995e-07 0)
(-2.31166e-07 2.27911e-07 0)
(-2.31647e-07 2.27853e-07 0)
(-2.32104e-07 2.27821e-07 0)
(-2.32542e-07 2.27814e-07 0)
(-2.32966e-07 2.27834e-07 0)
(-2.3338e-07 2.27879e-07 0)
(-2.33791e-07 2.2795e-07 0)
(-2.34202e-07 2.28047e-07 0)
(-2.34619e-07 2.28169e-07 0)
(-2.35049e-07 2.28317e-07 0)
(-2.35495e-07 2.28491e-07 0)
(-2.35964e-07 2.28689e-07 0)
(-2.36461e-07 2.28913e-07 0)
(-2.36993e-07 2.29161e-07 0)
(-2.37564e-07 2.29434e-07 0)
(-2.38182e-07 2.29731e-07 0)
(-2.38851e-07 2.30052e-07 0)
(-2.39578e-07 2.30396e-07 0)
(-2.40369e-07 2.30764e-07 0)
(-2.4123e-07 2.31154e-07 0)
(-2.42167e-07 2.31567e-07 0)
(-2.43186e-07 2.32001e-07 0)
(-2.44295e-07 2.32457e-07 0)
(-2.45498e-07 2.32934e-07 0)
(-2.46803e-07 2.33431e-07 0)
(-2.48216e-07 2.33948e-07 0)
(-2.49743e-07 2.34484e-07 0)
(-2.5139e-07 2.35039e-07 0)
(-2.53165e-07 2.35613e-07 0)
(-2.55073e-07 2.36203e-07 0)
(-2.57121e-07 2.36811e-07 0)
(-2.59315e-07 2.37435e-07 0)
(-2.61662e-07 2.38075e-07 0)
(-2.64169e-07 2.3873e-07 0)
(-2.66841e-07 2.39399e-07 0)
(-2.69685e-07 2.40081e-07 0)
(-2.72709e-07 2.40777e-07 0)
(-2.75917e-07 2.41485e-07 0)
(-2.79317e-07 2.42204e-07 0)
(-2.82914e-07 2.42934e-07 0)
(-2.86716e-07 2.43674e-07 0)
(-2.90729e-07 2.44424e-07 0)
(-2.94958e-07 2.45182e-07 0)
(-2.99411e-07 2.45948e-07 0)
(-3.04093e-07 2.46721e-07 0)
(-3.09012e-07 2.475e-07 0)
(-3.14172e-07 2.48285e-07 0)
(-3.19581e-07 2.49075e-07 0)
(-3.25244e-07 2.49869e-07 0)
(-3.31168e-07 2.50666e-07 0)
(-3.37358e-07 2.51466e-07 0)
(-3.43821e-07 2.52268e-07 0)
(-3.50563e-07 2.5307e-07 0)
(-3.57591e-07 2.53874e-07 0)
(-3.64909e-07 2.54676e-07 0)
(-3.72524e-07 2.55478e-07 0)
(-3.80442e-07 2.56278e-07 0)
(-3.88668e-07 2.57075e-07 0)
(-3.9721e-07 2.57869e-07 0)
(-4.06071e-07 2.58659e-07 0)
(-4.1526e-07 2.59444e-07 0)
(-4.2478e-07 2.60224e-07 0)
(-4.34638e-07 2.60997e-07 0)
(-4.44839e-07 2.61764e-07 0)
(-4.5539e-07 2.62524e-07 0)
(-4.66295e-07 2.63276e-07 0)
(-4.77561e-07 2.64018e-07 0)
(-4.89193e-07 2.64752e-07 0)
(-5.01199e-07 2.65476e-07 0)
(-5.13582e-07 2.66189e-07 0)
(-5.26346e-07 2.6689e-07 0)
(-5.39499e-07 2.67579e-07 0)
(-5.53044e-07 2.68255e-07 0)
(-5.66988e-07 2.68918e-07 0)
(-5.81336e-07 2.69567e-07 0)
(-5.96093e-07 2.70202e-07 0)
(-6.11264e-07 2.70821e-07 0)
(-6.26856e-07 2.71426e-07 0)
(-6.42872e-07 2.72014e-07 0)
(-6.59319e-07 2.72586e-07 0)
(-6.76201e-07 2.7314e-07 0)
(-6.93524e-07 2.73678e-07 0)
(-7.11294e-07 2.74198e-07 0)
(-7.29515e-07 2.74699e-07 0)
(-7.48193e-07 2.75182e-07 0)
(-7.67333e-07 2.75646e-07 0)
(-7.8694e-07 2.7609e-07 0)
(-8.07021e-07 2.76515e-07 0)
(-8.2758e-07 2.7692e-07 0)
(-8.48623e-07 2.77304e-07 0)
(-8.70155e-07 2.77668e-07 0)
(-8.92182e-07 2.78011e-07 0)
(-9.14709e-07 2.78332e-07 0)
(-9.37743e-07 2.78633e-07 0)
(-9.61288e-07 2.78911e-07 0)
(-9.85352e-07 2.79168e-07 0)
(-1.00994e-06 2.79403e-07 0)
(-1.03506e-06 2.79616e-07 0)
(-1.06071e-06 2.79806e-07 0)
(-1.0869e-06 2.79974e-07 0)
(-1.11365e-06 2.8012e-07 0)
(-1.14094e-06 2.80243e-07 0)
(-1.1688e-06 2.80343e-07 0)
(-1.19723e-06 2.80421e-07 0)
(-1.22623e-06 2.80476e-07 0)
(-1.25582e-06 2.80509e-07 0)
(-1.286e-06 2.80518e-07 0)
(-1.31677e-06 2.80506e-07 0)
(-1.34814e-06 2.8047e-07 0)
(-1.38013e-06 2.80413e-07 0)
(-1.41275e-06 2.80333e-07 0)
(-1.44599e-06 2.80231e-07 0)
(-1.47987e-06 2.80107e-07 0)
(-1.51439e-06 2.79961e-07 0)
(-1.54958e-06 2.79794e-07 0)
(-1.58543e-06 2.79606e-07 0)
(-1.62196e-06 2.79397e-07 0)
(-1.65918e-06 2.79168e-07 0)
(-1.69709e-06 2.78918e-07 0)
(-1.73572e-06 2.7865e-07 0)
(-1.77507e-06 2.78362e-07 0)
(-1.81516e-06 2.78056e-07 0)
(-1.85601e-06 2.77733e-07 0)
(-1.89761e-06 2.77392e-07 0)
(-1.94e-06 2.77036e-07 0)
(-1.98319e-06 2.76665e-07 0)
(-2.0272e-06 2.7628e-07 0)
(-2.07204e-06 2.75883e-07 0)
(-2.11773e-06 2.75474e-07 0)
(-2.16431e-06 2.75057e-07 0)
(-2.21179e-06 2.74631e-07 0)
(-2.2602e-06 2.74201e-07 0)
(-2.30957e-06 2.73767e-07 0)
(-2.35992e-06 2.73334e-07 0)
(-2.4113e-06 2.72903e-07 0)
(-2.46375e-06 2.7248e-07 0)
(-2.51729e-06 2.72068e-07 0)
(-2.57199e-06 2.71672e-07 0)
(-2.62789e-06 2.713e-07 0)
(-2.68505e-06 2.70956e-07 0)
(-2.74354e-06 2.70651e-07 0)
(-2.80344e-06 2.70395e-07 0)
(-2.86481e-06 2.70198e-07 0)
(-2.92778e-06 2.70076e-07 0)
(-2.99243e-06 2.70047e-07 0)
(-3.05891e-06 2.70131e-07 0)
(-3.12736e-06 2.70354e-07 0)
(-3.19796e-06 2.70749e-07 0)
(-3.2709e-06 2.71355e-07 0)
(-3.34643e-06 2.72222e-07 0)
(-3.42482e-06 2.73411e-07 0)
(-3.50643e-06 2.75001e-07 0)
(-3.59164e-06 2.77093e-07 0)
(-3.68095e-06 2.79816e-07 0)
(-3.77495e-06 2.8334e-07 0)
(-3.87434e-06 2.87887e-07 0)
(-3.98002e-06 2.93757e-07 0)
(-4.09302e-06 3.0135e-07 0)
(-4.21463e-06 3.11209e-07 0)
(-4.34642e-06 3.24064e-07 0)
(-4.49052e-06 3.40875e-07 0)
(-4.64737e-06 3.62606e-07 0)
(-4.80918e-06 3.89416e-07 0)
(-4.95354e-06 4.1868e-07 0)
(-3.88806e-06 3.44808e-07 0)
(-1.42359e-09 5.13372e-08 0)
(2.75357e-08 1.25172e-07 0)
(5.39069e-08 1.77706e-07 0)
(7.60876e-08 2.10296e-07 0)
(9.27433e-08 2.30361e-07 0)
(1.04463e-07 2.42801e-07 0)
(1.1239e-07 2.50685e-07 0)
(1.17567e-07 2.55854e-07 0)
(1.20792e-07 2.59386e-07 0)
(1.22639e-07 2.61912e-07 0)
(1.2351e-07 2.63804e-07 0)
(1.23681e-07 2.65286e-07 0)
(1.23342e-07 2.66491e-07 0)
(1.22624e-07 2.67506e-07 0)
(1.21615e-07 2.68384e-07 0)
(1.20378e-07 2.69158e-07 0)
(1.18956e-07 2.69853e-07 0)
(1.1738e-07 2.70483e-07 0)
(1.15671e-07 2.7106e-07 0)
(1.13845e-07 2.71591e-07 0)
(1.11912e-07 2.72081e-07 0)
(1.0988e-07 2.72536e-07 0)
(1.07755e-07 2.72958e-07 0)
(1.05539e-07 2.7335e-07 0)
(1.03237e-07 2.73713e-07 0)
(1.00849e-07 2.74049e-07 0)
(9.83766e-08 2.74359e-07 0)
(9.58215e-08 2.74645e-07 0)
(9.31838e-08 2.74906e-07 0)
(9.0464e-08 2.75145e-07 0)
(8.76622e-08 2.75361e-07 0)
(8.47787e-08 2.75554e-07 0)
(8.18136e-08 2.75727e-07 0)
(7.87669e-08 2.75878e-07 0)
(7.56388e-08 2.76008e-07 0)
(7.24294e-08 2.76117e-07 0)
(6.91389e-08 2.76207e-07 0)
(6.57675e-08 2.76276e-07 0)
(6.23157e-08 2.76325e-07 0)
(5.87835e-08 2.76355e-07 0)
(5.51715e-08 2.76366e-07 0)
(5.14802e-08 2.76357e-07 0)
(4.771e-08 2.7633e-07 0)
(4.38618e-08 2.76283e-07 0)
(3.99363e-08 2.76217e-07 0)
(3.59342e-08 2.76133e-07 0)
(3.18563e-08 2.7603e-07 0)
(2.77039e-08 2.75909e-07 0)
(2.34781e-08 2.75769e-07 0)
(1.91798e-08 2.75611e-07 0)
(1.48105e-08 2.75434e-07 0)
(1.03716e-08 2.7524e-07 0)
(5.86451e-09 2.75027e-07 0)
(1.29096e-09 2.74796e-07 0)
(-3.34747e-09 2.74548e-07 0)
(-8.04878e-09 2.74281e-07 0)
(-1.28113e-08 2.73997e-07 0)
(-1.76327e-08 2.73695e-07 0)
(-2.2511e-08 2.73375e-07 0)
(-2.7444e-08 2.73038e-07 0)
(-3.24292e-08 2.72684e-07 0)
(-3.74642e-08 2.72312e-07 0)
(-4.25463e-08 2.71924e-07 0)
(-4.76728e-08 2.71518e-07 0)
(-5.28411e-08 2.71095e-07 0)
(-5.80481e-08 2.70655e-07 0)
(-6.32908e-08 2.70199e-07 0)
(-6.8566e-08 2.69727e-07 0)
(-7.38707e-08 2.69238e-07 0)
(-7.92014e-08 2.68734e-07 0)
(-8.45545e-08 2.68213e-07 0)
(-8.99268e-08 2.67678e-07 0)
(-9.53146e-08 2.67127e-07 0)
(-1.00714e-07 2.66561e-07 0)
(-1.06121e-07 2.6598e-07 0)
(-1.11533e-07 2.65385e-07 0)
(-1.16945e-07 2.64776e-07 0)
(-1.22353e-07 2.64153e-07 0)
(-1.27753e-07 2.63518e-07 0)
(-1.33141e-07 2.62869e-07 0)
(-1.38513e-07 2.62208e-07 0)
(-1.43865e-07 2.61536e-07 0)
(-1.49193e-07 2.60852e-07 0)
(-1.54492e-07 2.60157e-07 0)
(-1.59758e-07 2.59452e-07 0)
(-1.64988e-07 2.58737e-07 0)
(-1.70176e-07 2.58013e-07 0)
(-1.75318e-07 2.57281e-07 0)
(-1.80412e-07 2.56541e-07 0)
(-1.85451e-07 2.55794e-07 0)
(-1.90433e-07 2.55041e-07 0)
(-1.95353e-07 2.54282e-07 0)
(-2.00208e-07 2.53518e-07 0)
(-2.04994e-07 2.5275e-07 0)
(-2.09706e-07 2.51979e-07 0)
(-2.14342e-07 2.51206e-07 0)
(-2.18897e-07 2.50431e-07 0)
(-2.23369e-07 2.49655e-07 0)
(-2.27755e-07 2.4888e-07 0)
(-2.3205e-07 2.48106e-07 0)
(-2.36253e-07 2.47334e-07 0)
(-2.40361e-07 2.46565e-07 0)
(-2.4437e-07 2.45801e-07 0)
(-2.4828e-07 2.45041e-07 0)
(-2.52087e-07 2.44287e-07 0)
(-2.55789e-07 2.43541e-07 0)
(-2.59386e-07 2.42802e-07 0)
(-2.62875e-07 2.42073e-07 0)
(-2.66255e-07 2.41353e-07 0)
(-2.69526e-07 2.40645e-07 0)
(-2.72686e-07 2.39949e-07 0)
(-2.75734e-07 2.39266e-07 0)
(-2.78672e-07 2.38596e-07 0)
(-2.81498e-07 2.37942e-07 0)