/*--------------------------------*- C++ -*----------------------------------*\
| =========                 |                                                 |
| \\      /  F ield         | OpenFOAM: The Open Source CFD Toolbox           |
|  \\    /   O peration     | Version:  2512                                  |
|   \\  /    A nd           | Website:  www.openfoam.com                      |
|    \\/     M anipulation  |                                                 |
\*---------------------------------------------------------------------------*/
FoamFile
{
    version     2.0;
    format      ascii;
    arch        "LSB;label=32;scalar=64";
    class       volScalarField;
    location    "2752";
    object      p;
}
// * * * * * * * * * * * * * * * * * * * * * * * * * * * * * * * * * * * * * //

dimensions      [0 2 -2 0 0 0 0];

internalField   nonuniform List<scalar> 
66422
(
0.0227913
0.0260876
0.0281178
0.0291778
0.029892
0.0304176
0.0308153
0.0311273
0.0313805
0.0315911
0.0317697
0.0319236
0.0320577
0.0321757
0.0322803
0.0323733
0.0324565
0.0325309
0.0325976
0.0326573
0.0327107
0.0327582
0.0328004
0.0328375
0.03287
0.0328979
0.0329217
0.0329413
0.0329571
0.0329691
0.0329775
0.0329823
0.0329836
0.0329815
0.0329761
0.0329674
0.0329554
0.0329402
0.0329217
0.0329001
0.0328753
0.0328473
0.0328161
0.0327818
0.0327443
0.0327035
0.0326596
0.0326124
0.032562
0.0325083
0.0324514
0.0323911
0.0323275
0.0322605
0.0321901
0.0321162
0.0320389
0.0319581
0.0318738
0.0317859
0.0316944
0.0315993
0.0315005
0.031398
0.0312918
0.0311818
0.031068
0.0309504
0.030829
0.0307036
0.0305743
0.0304411
0.0303039
0.0301627
0.0300175
0.0298683
0.029715
0.0295577
0.0293963
0.0292309
0.0290613
0.0288877
0.0287099
0.0285281
0.0283423
0.0281523
0.0279583
0.0277603
0.0275583
0.0273523
0.0271423
0.0269284
0.0267106
0.026489
0.0262636
0.0260345
0.0258017
0.0255652
0.0253252
0.0250816
0.0248346
0.0245843
0.0243307
0.0240739
0.0238139
0.023551
0.0232851
0.0230164
0.0227449
0.0224709
0.0221943
0.0219152
0.0216339
0.0213504
0.0210648
0.0207773
0.0204879
0.0201968
0.0199041
0.01961
0.0193145
0.0190178
0.01872
0.0184213
0.0181218
0.0178216
0.0175208
0.0172196
0.0169181
0.0166165
0.0163148
0.0160131
0.0157118
0.0154107
0.0151101
0.0148102
0.0145109
0.0142125
0.013915
0.0136186
0.0133234
0.0130294
0.0127369
0.0124459
0.0121566
0.0118689
0.0115831
0.0112993
0.0110174
0.0107377
0.0104601
0.0101849
0.00991202
0.00964162
0.00937376
0.00910853
0.00884598
0.00858619
0.00832924
0.00807519
0.00782409
0.00757601
0.00733101
0.00708913
0.00685044
0.00661498
0.0063828
0.00615394
0.00592843
0.00570633
0.00548766
0.00527245
0.00506075
0.00485257
0.00464794
0.00444689
0.00424943
0.00405558
0.00386536
0.00367878
0.00349585
0.00331658
0.00314098
0.00296906
0.0028008
0.00263622
0.00247531
0.00231807
0.00216448
0.00201455
0.00186826
0.0017256
0.00158655
0.0014511
0.00131922
0.00119091
0.00106613
0.000944866
0.000827087
0.000712768
0.000601879
0.000494391
0.00039027
0.000289484
0.000191997
9.77727e-05
6.77245e-06
-8.10428e-05
-0.000165714
-0.000247282
-0.000325791
-0.000401285
-0.000473808
-0.000543408
-0.00061013
-0.000674024
-0.000735137
-0.00079352
-0.000849223
-0.000902296
-0.000952791
-0.00100076
-0.00104626
-0.00108933
-0.00113004
-0.00116843
-0.00120456
-0.00123848
-0.00127025
-0.00129991
-0.00132754
-0.00135316
-0.00137685
-0.00139865
-0.00141861
-0.00143679
-0.00145324
-0.00146801
-0.00148115
-0.00149271
-0.00150274
-0.00151129
-0.00151841
-0.00152414
-0.00152854
-0.00153164
-0.0015335
-0.00153415
-0.00153364
-0.00153202
-0.00152931
-0.00152556
-0.00152082
-0.00151511
-0.00150848
-0.00150095
-0.00149257
-0.00148336
-0.00147336
-0.00146259
-0.00145109
-0.00143887
-0.00142597
-0.00141241
-0.00139821
-0.00138338
-0.00136796
-0.00135194
-0.00133536
-0.00131821
-0.00130052
-0.00128228
-0.0012635
-0.00124418
-0.00122432
-0.00120392
-0.00118298
-0.00116146
-0.00113937
-0.00111668
-0.00109337
-0.00106939
-0.00104471
-0.00101928
-0.000993038
-0.000965907
-0.000937798
-0.000908598
-0.000878164
-0.000846315
-0.000812816
-0.000777347
-0.000739466
-0.000698527
-0.000653545
-0.000602847
-0.000543307
-0.000471061
-0.000385821
-0.000230444
0.027382
0.0285626
0.0294709
0.0301537
0.0307069
0.0311527
0.0315118
0.0318058
0.0320508
0.0322581
0.032436
0.0325903
0.0327255
0.0328447
0.0329505
0.0330448
0.033129
0.0332045
0.033272
0.0333325
0.0333865
0.0334346
0.0334772
0.0335146
0.0335472
0.0335753
0.033599
0.0336186
0.0336341
0.0336458
0.0336538
0.0336581
0.0336589
0.0336562
0.03365
0.0336405
0.0336276
0.0336113
0.0335918
0.0335691
0.033543
0.0335137
0.0334812
0.0334454
0.0334063
0.0333639
0.0333183
0.0332693
0.0332171
0.0331614
0.0331024
0.03304
0.0329742
0.032905
0.0328322
0.0327559
0.0326761
0.0325927
0.0325057
0.032415
0.0323207
0.0322227
0.0321209
0.0320153
0.0319059
0.0317926
0.0316755
0.0315545
0.0314295
0.0313005
0.0311676
0.0310306
0.0308896
0.0307445
0.0305954
0.0304421
0.0302847
0.0301232
0.0299575
0.0297877
0.0296138
0.0294356
0.0292534
0.0290669
0.0288764
0.0286817
0.0284829
0.02828
0.0280731
0.0278621
0.0276471
0.0274282
0.0272053
0.0269785
0.0267479
0.0265135
0.0262753
0.0260335
0.0257881
0.0255392
0.0252867
0.0250309
0.0247718
0.0245095
0.024244
0.0239755
0.0237041
0.0234298
0.0231527
0.022873
0.0225908
0.0223061
0.0220192
0.02173
0.0214388
0.0211456
0.0208506
0.0205539
0.0202556
0.0199558
0.0196547
0.0193525
0.0190491
0.0187449
0.0184398
0.0181341
0.0178278
0.0175212
0.0172142
0.0169072
0.0166001
0.0162931
0.0159864
0.0156801
0.0153743
0.0150691
0.0147646
0.014461
0.0141584
0.013857
0.0135567
0.0132578
0.0129604
0.0126645
0.0123703
0.0120779
0.0117873
0.0114987
0.0112122
0.0109278
0.0106458
0.010366
0.0100887
0.00981389
0.00954168
0.00927215
0.00900537
0.0087414
0.00848032
0.00822219
0.00796708
0.00771504
0.00746614
0.00722042
0.00697795
0.00673877
0.00650292
0.00627045
0.00604141
0.00581582
0.00559373
0.00537516
0.00516016
0.00494874
0.00474093
0.00453675
0.00433624
0.00413939
0.00394623
0.00375678
0.00357104
0.00338902
0.00321073
0.00303616
0.00286534
0.00269824
0.00253488
0.00237524
0.00221932
0.00206711
0.00191859
0.00177376
0.00163261
0.0014951
0.00136123
0.00123097
0.0011043
0.000981202
0.000861641
0.000745591
0.000633023
0.000523906
0.000418207
0.000315891
0.000216922
0.000121264
2.88772e-05
-6.02787e-05
-0.000146245
-0.000229064
-0.000308781
-0.000385439
-0.000459084
-0.000529765
-0.000597529
-0.000662424
-0.0007245
-0.000783808
-0.000840399
-0.000894324
-0.000945635
-0.000994386
-0.00104063
-0.00108442
-0.00112581
-0.00116485
-0.0012016
-0.00123612
-0.00126845
-0.00129865
-0.00132677
-0.00135288
-0.00137702
-0.00139924
-0.00141961
-0.00143817
-0.00145497
-0.00147007
-0.00148352
-0.00149536
-0.00150566
-0.00151445
-0.0015218
-0.00152773
-0.00153231
-0.00153558
-0.00153758
-0.00153836
-0.00153796
-0.00153642
-0.00153379
-0.0015301
-0.0015254
-0.00151971
-0.00151309
-0.00150555
-0.00149715
-0.0014879
-0.00147784
-0.001467
-0.0014554
-0.00144308
-0.00143006
-0.00141636
-0.001402
-0.001387
-0.00137138
-0.00135516
-0.00133835
-0.00132095
-0.00130299
-0.00128445
-0.00126536
-0.0012457
-0.00122548
-0.00120468
-0.0011833
-0.00116133
-0.00113874
-0.00111551
-0.0010916
-0.00106698
-0.00104159
-0.00101538
-0.000988284
-0.000960201
-0.000931026
-0.000900624
-0.000868825
-0.000835411
-0.000800097
-0.000762508
-0.000722128
-0.000678239
-0.000629815
-0.000575221
-0.000511637
-0.00043734
-0.000359378
-0.000223118
0.0286783
0.028897
0.0292241
0.0296189
0.0299998
0.0303373
0.0306292
0.0308803
0.0310969
0.0312845
0.0314482
0.0315918
0.0317186
0.0318312
0.0319314
0.0320211
0.0321014
0.0321733
0.0322378
0.0322956
0.0323472
0.0323931
0.0324337
0.0324693
0.0325003
0.0325269
0.0325493
0.0325677
0.0325822
0.032593
0.0326001
0.0326037
0.0326038
0.0326006
0.032594
0.0325841
0.032571
0.0325546
0.032535
0.0325123
0.0324864
0.0324573
0.032425
0.0323896
0.032351
0.0323092
0.0322642
0.032216
0.0321646
0.0321099
0.0320519
0.0319906
0.031926
0.031858
0.0317867
0.0317119
0.0316337
0.031552
0.0314667
0.031378
0.0312857
0.0311897
0.0310901
0.0309869
0.03088
0.0307693
0.0306548
0.0305366
0.0304145
0.0302886
0.0301589
0.0300252
0.0298876
0.0297461
0.0296006
0.0294511
0.0292977
0.0291403
0.0289788
0.0288134
0.028644
0.0284705
0.028293
0.0281115
0.0279261
0.0277366
0.0275432
0.0273459
0.0271446
0.0269395
0.0267305
0.0265177
0.0263011
0.0260808
0.0258567
0.0256291
0.0253978
0.0251631
0.0249249
0.0246833
0.0244384
0.0241902
0.0239389
0.0236844
0.023427
0.0231667
0.0229036
0.0226377
0.0223693
0.0220983
0.0218249
0.0215492
0.0212713
0.0209913
0.0207094
0.0204256
0.02014
0.0198529
0.0195643
0.0192743
0.0189831
0.0186907
0.0183974
0.0181032
0.0178083
0.0175127
0.0172167
0.0169203
0.0166237
0.016327
0.0160303
0.0157337
0.0154374
0.0151416
0.0148462
0.0145515
0.0142575
0.0139644
0.0136722
0.0133812
0.0130914
0.0128029
0.0125158
0.0122302
0.0119463
0.0116641
0.0113838
0.0111053
0.0108289
0.0105546
0.0102825
0.0100126
0.00974516
0.00948012
0.0092176
0.00895767
0.0087004
0.00844587
0.00819413
0.00794524
0.00769928
0.0074563
0.00721634
0.00697947
0.00674574
0.00651519
0.00628786
0.0060638
0.00584304
0.00562563
0.00541159
0.00520096
0.00499377
0.00479004
0.0045898
0.00439307
0.00419987
0.00401021
0.00382411
0.00364159
0.00346265
0.0032873
0.00311555
0.00294739
0.00278284
0.00262189
0.00246453
0.00231077
0.00216059
0.00201399
0.00187095
0.00173147
0.00159552
0.0014631
0.00133417
0.00120873
0.00108674
0.000968196
0.000853057
0.000741301
0.000632899
0.00052782
0.000426031
0.000327501
0.000232194
0.000140072
5.11003e-05
-3.47619e-05
-0.000117554
-0.000197318
-0.000274096
-0.000347931
-0.000418868
-0.000486952
-0.00055223
-0.000614749
-0.000674557
-0.000731702
-0.000786234
-0.000838202
-0.000887658
-0.000934651
-0.000979234
-0.00102146
-0.00106137
-0.00109903
-0.00113449
-0.00116779
-0.001199
-0.00122816
-0.00125533
-0.00128055
-0.00130388
-0.00132537
-0.00134508
-0.00136305
-0.00137933
-0.00139397
-0.00140702
-0.00141854
-0.00142856
-0.00143714
-0.00144432
-0.00145015
-0.00145468
-0.00145794
-0.00145998
-0.00146085
-0.00146058
-0.00145922
-0.0014568
-0.00145336
-0.00144895
-0.00144359
-0.00143731
-0.00143017
-0.00142218
-0.00141337
-0.00140379
-0.00139344
-0.00138237
-0.00137059
-0.00135813
-0.00134502
-0.00133126
-0.00131688
-0.00130189
-0.00128632
-0.00127016
-0.00125344
-0.00123615
-0.0012183
-0.0011999
-0.00118095
-0.00116143
-0.00114134
-0.00112067
-0.0010994
-0.00107751
-0.00105497
-0.00103174
-0.00100779
-0.000983067
-0.000957496
-0.000931006
-0.0009035
-0.000874863
-0.000844949
-0.000813577
-0.000780519
-0.000745481
-0.000708079
-0.000667809
-0.000623995
-0.000575746
-0.000521734
-0.000459693
-0.000389337
-0.000323925
-0.000217658
0.0296209
0.0295945
0.0297254
0.0299649
0.0302278
0.030482
0.030717
0.0309295
0.0311194
0.0312885
0.0314389
0.031573
0.0316928
0.0318
0.0318962
0.0319826
0.0320602
0.0321301
0.0321928
0.032249
0.0322992
0.0323439
0.0323835
0.0324182
0.0324483
0.0324741
0.0324957
0.0325133
0.0325271
0.0325372
0.0325437
0.0325466
0.0325461
0.0325423
0.0325351
0.0325246
0.0325108
0.0324939
0.0324737
0.0324504
0.0324239
0.0323942
0.0323613
0.0323253
0.0322861
0.0322437
0.0321981
0.0321493
0.0320972
0.0320419
0.0319833
0.0319214
0.0318561
0.0317875
0.0317155
0.0316401
0.0315612
0.0314788
0.031393
0.0313036
0.0312106
0.031114
0.0310137
0.0309098
0.0308022
0.0306909
0.0305758
0.0304569
0.0303342
0.0302076
0.0300772
0.0299429
0.0298047
0.0296625
0.0295164
0.0293664
0.0292123
0.0290543
0.0288923
0.0287263
0.0285563
0.0283823
0.0282043
0.0280224
0.0278364
0.0276465
0.0274527
0.027255
0.0270533
0.0268478
0.0266385
0.0264254
0.0262085
0.025988
0.0257637
0.0255359
0.0253045
0.0250696
0.0248313
0.0245897
0.0243448
0.0240966
0.0238454
0.0235911
0.0233338
0.0230737
0.0228108
0.0225452
0.022277
0.0220064
0.0217334
0.0214581
0.0211807
0.0209012
0.0206198
0.0203366
0.0200517
0.0197653
0.0194773
0.0191881
0.0188977
0.0186061
0.0183137
0.0180204
0.0177264
0.0174318
0.0171367
0.0168414
0.0165458
0.0162502
0.0159546
0.0156592
0.0153641
0.0150695
0.0147753
0.0144818
0.0141891
0.0138973
0.0136065
0.0133168
0.0130283
0.0127412
0.0124555
0.0121713
0.0118888
0.011608
0.0113291
0.0110521
0.0107771
0.0105043
0.0102336
0.00996525
0.00969924
0.00943567
0.00917462
0.00891617
0.00866037
0.0084073
0.00815703
0.00790961
0.0076651
0.00742357
0.00718507
0.00694964
0.00671734
0.00648821
0.0062623
0.00603964
0.00582029
0.00560426
0.0053916
0.00518233
0.00497649
0.00477409
0.00457517
0.00437975
0.00418784
0.00399946
0.00381463
0.00363335
0.00345563
0.00328149
0.00311093
0.00294395
0.00278056
0.00262074
0.00246451
0.00231184
0.00216275
0.0020172
0.00187521
0.00173674
0.00160179
0.00147034
0.00134237
0.00121787
0.00109679
0.000979137
0.000864867
0.000753958
0.000646379
0.000542102
0.000441093
0.000343319
0.000248745
0.000157335
6.90515e-05
-1.61453e-05
-9.8295e-05
-0.000177439
-0.000253619
-0.00032688
-0.000397265
-0.00046482
-0.000529591
-0.000591625
-0.00065097
-0.000707675
-0.000761788
-0.000813358
-0.000862438
-0.000909076
-0.000953323
-0.000995232
-0.00103485
-0.00107224
-0.00110744
-0.00114051
-0.0011715
-0.00120046
-0.00122745
-0.00125251
-0.00127569
-0.00129706
-0.00131665
-0.00133452
-0.00135072
-0.00136529
-0.00137829
-0.00138977
-0.00139977
-0.00140834
-0.00141552
-0.00142136
-0.00142591
-0.00142921
-0.0014313
-0.00143222
-0.00143202
-0.00143073
-0.0014284
-0.00142505
-0.00142074
-0.00141548
-0.00140932
-0.00140229
-0.00139443
-0.00138575
-0.00137629
-0.00136609
-0.00135515
-0.00134352
-0.0013312
-0.00131823
-0.00130461
-0.00129038
-0.00127554
-0.0012601
-0.00124409
-0.0012275
-0.00121035
-0.00119263
-0.00117435
-0.00115551
-0.0011361
-0.00111611
-0.00109553
-0.00107434
-0.00105251
-0.00103002
-0.00100682
-0.000982886
-0.000958145
-0.000932537
-0.000905979
-0.000878374
-0.000849602
-0.000819516
-0.000787936
-0.000754635
-0.000719333
-0.000681674
-0.000641205
-0.000597361
-0.000549447
-0.000496495
-0.000436774
-0.000371128
-0.000316547
-0.000226426
0.0302675
0.030182
0.0302211
0.0303606
0.0305377
0.0307251
0.0309102
0.0310858
0.0312485
0.0313976
0.0315331
0.0316561
0.0317673
0.031868
0.031959
0.0320413
0.0321157
0.0321828
0.0322432
0.0322975
0.0323461
0.0323894
0.0324276
0.0324612
0.0324903
0.0325151
0.0325358
0.0325526
0.0325656
0.0325749
0.0325807
0.0325829
0.0325817
0.0325772
0.0325693
0.0325581
0.0325437
0.0325261
0.0325053
0.0324813
0.0324541
0.0324237
0.0323902
0.0323534
0.0323135
0.0322704
0.0322241
0.0321745
0.0321217
0.0320656
0.0320062
0.0319435
0.0318775
0.0318081
0.0317353
0.031659
0.0315793
0.0314961
0.0314094
0.0313191
0.0312252
0.0311277
0.0310266
0.0309217
0.0308132
0.0307009
0.0305848
0.030465
0.0303413
0.0302138
0.0300824
0.0299471
0.0298078
0.0296647
0.0295176
0.0293665
0.0292114
0.0290524
0.0288894
0.0287224
0.0285514
0.0283763
0.0281973
0.0280144
0.0278274
0.0276365
0.0274417
0.027243
0.0270404
0.0268339
0.0266236
0.0264096
0.0261918
0.0259703
0.0257452
0.0255165
0.0252842
0.0250485
0.0248094
0.024567
0.0243213
0.0240724
0.0238205
0.0235655
0.0233075
0.0230468
0.0227833
0.0225171
0.0222484
0.0219772
0.0217037
0.021428
0.0211502
0.0208703
0.0205886
0.0203051
0.0200199
0.0197332
0.019445
0.0191556
0.018865
0.0185734
0.0182808
0.0179875
0.0176935
0.0173989
0.0171039
0.0168086
0.0165132
0.0162177
0.0159223
0.0156271
0.0153323
0.0150378
0.014744
0.0144508
0.0141585
0.013867
0.0135766
0.0132873
0.0129993
0.0127126
0.0124274
0.0121438
0.0118618
0.0115815
0.0113032
0.0110268
0.0107524
0.0104801
0.0102101
0.00994238
0.00967702
0.00941412
0.00915374
0.00889597
0.00864087
0.00838851
0.00813895
0.00789225
0.00764848
0.00740768
0.00716992
0.00693523
0.00670368
0.0064753
0.00625015
0.00602825
0.00580965
0.00559438
0.00538247
0.00517396
0.00496888
0.00476724
0.00456908
0.00437441
0.00418325
0.00399561
0.00381152
0.00363098
0.003454
0.00328059
0.00311075
0.00294449
0.0027818
0.00262269
0.00246715
0.00231518
0.00216676
0.00202189
0.00188056
0.00174275
0.00160845
0.00147764
0.0013503
0.00122641
0.00110594
0.000988881
0.000875196
0.00076486
0.000657845
0.000554118
0.000453647
0.0003564
0.00026234
0.000171431
8.36353e-05
-1.08622e-06
-8.27739e-05
-0.000161469
-0.000237215
-0.000310054
-0.000380031
-0.000447192
-0.000511583
-0.000573251
-0.000632243
-0.000688609
-0.000742398
-0.000793658
-0.000842441
-0.000888796
-0.000932775
-0.000974429
-0.00101381
-0.00105097
-0.00108595
-0.00111882
-0.00114962
-0.00117841
-0.00120523
-0.00123014
-0.00125319
-0.00127443
-0.00129391
-0.00131168
-0.00132778
-0.00134228
-0.00135521
-0.00136663
-0.00137658
-0.00138511
-0.00139227
-0.00139809
-0.00140263
-0.00140593
-0.00140802
-0.00140896
-0.00140878
-0.00140752
-0.00140522
-0.00140192
-0.00139765
-0.00139244
-0.00138635
-0.00137938
-0.00137158
-0.00136298
-0.0013536
-0.00134347
-0.00133261
-0.00132106
-0.00130883
-0.00129594
-0.00128242
-0.00126827
-0.00125352
-0.00123817
-0.00122224
-0.00120573
-0.00118866
-0.00117102
-0.00115282
-0.00113405
-0.0011147
-0.00109477
-0.00107424
-0.00105309
-0.00103129
-0.00100883
-0.000985647
-0.000961709
-0.000936957
-0.000911325
-0.00088473
-0.000857076
-0.000828246
-0.000798098
-0.000766462
-0.000733128
-0.000697843
-0.000660301
-0.000620126
-0.000576878
-0.000530069
-0.000479035
-0.000422445
-0.00036194
-0.000317039
-0.000237865
0.0306938
0.0305991
0.0305933
0.0306706
0.0307879
0.0309241
0.0310674
0.0312097
0.0313465
0.0314754
0.0315953
0.0317059
0.0318075
0.0319005
0.0319854
0.0320627
0.0321329
0.0321966
0.0322541
0.032306
0.0323524
0.0323939
0.0324305
0.0324626
0.0324904
0.032514
0.0325337
0.0325495
0.0325616
0.03257
0.0325749
0.0325764
0.0325744
0.0325691
0.0325605
0.0325487
0.0325336
0.0325153
0.0324938
0.0324691
0.0324413
0.0324103
0.0323761
0.0323387
0.0322981
0.0322544
0.0322074
0.0321572
0.0321037
0.032047
0.0319869
0.0319236
0.0318568
0.0317867
0.0317132
0.0316363
0.0315559
0.031472
0.0313845
0.0312935
0.0311989
0.0311006
0.0309987
0.0308932
0.0307839
0.0306708
0.030554
0.0304333
0.0303089
0.0301806
0.0300484
0.0299123
0.0297722
0.0296283
0.0294804
0.0293285
0.0291727
0.0290128
0.028849
0.0286812
0.0285094
0.0283336
0.0281538
0.0279701
0.0277823
0.0275907
0.0273951
0.0271956
0.0269923
0.0267851
0.0265741
0.0263594
0.0261409
0.0259188
0.025693
0.0254637
0.0252309
0.0249946
0.024755
0.024512
0.0242658
0.0240164
0.023764
0.0235086
0.0232503
0.0229891
0.0227253
0.0224588
0.0221898
0.0219184
0.0216447
0.0213688
0.0210908
0.0208109
0.0205291
0.0202455
0.0199603
0.0196736
0.0193856
0.0190962
0.0188058
0.0185143
0.018222
0.0179289
0.0176351
0.0173409
0.0170462
0.0167513
0.0164563
0.0161613
0.0158664
0.0155717
0.0152773
0.0149835
0.0146902
0.0143977
0.014106
0.0138152
0.0135255
0.0132369
0.0129497
0.0126638
0.0123793
0.0120965
0.0118154
0.011536
0.0112585
0.010983
0.0107095
0.0104382
0.0101691
0.00990233
0.00963794
0.00937601
0.00911662
0.00885985
0.00860575
0.00835441
0.00810586
0.00786019
0.00761745
0.00737769
0.00714096
0.00690732
0.00667681
0.00644948
0.00622537
0.00600452
0.00578696
0.00557274
0.00536188
0.00515441
0.00495036
0.00474976
0.00455262
0.00435898
0.00416883
0.00398221
0.00379912
0.00361958
0.00344359
0.00327117
0.0031023
0.00293701
0.00277528
0.00261711
0.00246251
0.00231146
0.00216396
0.00202
0.00187956
0.00174263
0.00160919
0.00147923
0.00135273
0.00122967
0.00111002
0.000993758
0.000880859
0.000771294
0.000665034
0.000562048
0.000462303
0.000365765
0.000272399
0.000182168
9.50334e-05
1.09568e-05
-7.01025e-05
-0.000148186
-0.000223337
-0.000295598
-0.000365015
-0.000431632
-0.000495496
-0.000556655
-0.000615156
-0.000671048
-0.000724379
-0.0007752
-0.00082356
-0.00086951
-0.000913101
-0.000954383
-0.000993409
-0.00103023
-0.0010649
-0.00109746
-0.00112797
-0.00115649
-0.00118306
-0.00120773
-0.00123055
-0.00125158
-0.00127086
-0.00128845
-0.00130439
-0.00131874
-0.00133153
-0.00134283
-0.00135267
-0.0013611
-0.00136817
-0.00137392
-0.0013784
-0.00138164
-0.0013837
-0.00138461
-0.00138441
-0.00138314
-0.00138084
-0.00137755
-0.0013733
-0.00136813
-0.00136206
-0.00135514
-0.00134739
-0.00133884
-0.00132952
-0.00131946
-0.00130868
-0.00129721
-0.00128506
-0.00127226
-0.00125882
-0.00124477
-0.00123011
-0.00121486
-0.00119904
-0.00118263
-0.00116566
-0.00114813
-0.00113003
-0.00111136
-0.00109211
-0.00107228
-0.00105185
-0.0010308
-0.00100911
-0.000986735
-0.00096365
-0.000939805
-0.000915147
-0.00088961
-0.000863116
-0.000835573
-0.000806872
-0.000776881
-0.000745447
-0.000712387
-0.000677485
-0.00064049
-0.000601112
-0.000559031
-0.000513936
-0.000465396
-0.000412331
-0.000356904
-0.000320585
-0.000249775
0.0310022
0.0309163
0.0308929
0.0309341
0.0310116
0.0311102
0.0312203
0.0313346
0.0314483
0.0315583
0.0316629
0.0317612
0.0318528
0.0319376
0.0320158
0.0320875
0.0321531
0.032213
0.0322672
0.0323163
0.0323603
0.0323996
0.0324344
0.0324648
0.0324911
0.0325134
0.0325318
0.0325465
0.0325575
0.032565
0.032569
0.0325696
0.0325668
0.0325608
0.0325514
0.0325388
0.032523
0.0325041
0.0324819
0.0324566
0.0324281
0.0323964
0.0323616
0.0323236
0.0322824
0.032238
0.0321904
0.0321396
0.0320855
0.0320281
0.0319674
0.0319034
0.031836
0.0317653
0.0316911
0.0316135
0.0315324
0.0314478
0.0313597
0.031268
0.0311727
0.0310738
0.0309712
0.0308649
0.0307548
0.0306411
0.0305235
0.0304021
0.0302769
0.0301478
0.0300149
0.029878
0.0297372
0.0295925
0.0294438
0.0292912
0.0291346
0.0289739
0.0288093
0.0286407
0.0284681
0.0282916
0.028111
0.0279265
0.027738
0.0275456
0.0273492
0.027149
0.0269449
0.026737
0.0265253
0.0263099
0.0260907
0.0258679
0.0256414
0.0254114
0.025178
0.0249411
0.0247008
0.0244573
0.0242105
0.0239606
0.0237077
0.0234517
0.023193
0.0229314
0.0226671
0.0224003
0.0221309
0.0218592
0.0215852
0.021309
0.0210308
0.0207507
0.0204687
0.020185
0.0198997
0.019613
0.0193249
0.0190356
0.0187451
0.0184537
0.0181615
0.0178685
0.017575
0.0172809
0.0169865
0.0166919
0.0163972
0.0161025
0.015808
0.0155137
0.0152199
0.0149265
0.0146337
0.0143417
0.0140506
0.0137604
0.0134713
0.0131834
0.0128968
0.0126116
0.0123279
0.0120459
0.0117655
0.0114869
0.0112102
0.0109356
0.0106629
0.0103925
0.0101243
0.00985841
0.00959494
0.00933394
0.0090755
0.00881969
0.00856656
0.00831619
0.00806864
0.00782397
0.00758223
0.00734348
0.00710778
0.00687516
0.00664568
0.00641938
0.00619631
0.0059765
0.00575998
0.0055468
0.00533697
0.00513055
0.00492754
0.00472797
0.00453187
0.00433926
0.00415014
0.00396454
0.00378248
0.00360395
0.00342897
0.00325755
0.00308968
0.00292537
0.00276462
0.00260743
0.00245379
0.0023037
0.00215715
0.00201412
0.0018746
0.00173859
0.00160606
0.00147699
0.00135138
0.00122918
0.00111039
0.000994971
0.000882902
0.000774155
0.000668699
0.000566502
0.000467532
0.000371755
0.000279134
0.000189633
0.000103214
1.9837e-05
-6.05387e-05
-0.000137955
-0.000212454
-0.00028408
-0.000352879
-0.000418894
-0.000482174
-0.000542765
-0.000600715
-0.000656073
-0.000708887
-0.000759209
-0.000807086
-0.000852571
-0.000895714
-0.000936566
-0.000975179
-0.0010116
-0.00104589
-0.00107809
-0.00110826
-0.00113644
-0.0011627
-0.00118707
-0.00120961
-0.00123038
-0.00124941
-0.00126677
-0.00128249
-0.00129663
-0.00130924
-0.00132036
-0.00133004
-0.00133833
-0.00134527
-0.0013509
-0.00135527
-0.00135842
-0.00136039
-0.00136123
-0.00136098
-0.00135966
-0.00135732
-0.00135401
-0.00134974
-0.00134456
-0.0013385
-0.00133158
-0.00132385
-0.00131533
-0.00130605
-0.00129603
-0.00128531
-0.00127389
-0.0012618
-0.00124907
-0.00123571
-0.00122174
-0.00120717
-0.00119201
-0.00117627
-0.00115997
-0.0011431
-0.00112567
-0.00110768
-0.00108913
-0.00107
-0.00105029
-0.00102998
-0.00100906
-0.000987496
-0.000965261
-0.00094232
-0.000918629
-0.000894136
-0.000868779
-0.000842486
-0.000815173
-0.00078674
-0.000757073
-0.000726037
-0.000693479
-0.000659225
-0.000623079
-0.000584831
-0.000544263
-0.000501205
-0.000455387
-0.000405866
-0.000355142
-0.000326318
-0.000262011
0.0312424
0.0311701
0.0311417
0.0311624
0.0312137
0.0312853
0.0313698
0.0314612
0.0315549
0.031648
0.0317385
0.0318249
0.0319066
0.0319832
0.0320545
0.0321205
0.0321812
0.0322369
0.0322876
0.0323336
0.0323749
0.0324119
0.0324446
0.0324732
0.0324979
0.0325187
0.0325358
0.0325492
0.0325591
0.0325656
0.0325686
0.0325682
0.0325646
0.0325577
0.0325476
0.0325343
0.0325177
0.0324981
0.0324752
0.0324492
0.0324201
0.0323878
0.0323523
0.0323137
0.0322719
0.0322269
0.0321787
0.0321272
0.0320725
0.0320145
0.0319532
0.0318886
0.0318206
0.0317492
0.0316744
0.0315962
0.0315144
0.0314292
0.0313404
0.031248
0.0311521
0.0310524
0.0309491
0.0308422
0.0307314
0.0306169
0.0304987
0.0303766
0.0302506
0.0301208
0.0299871
0.0298495
0.0297079
0.0295624
0.029413
0.0292595
0.0291021
0.0289407
0.0287753
0.0286059
0.0284325
0.0282551
0.0280738
0.0278884
0.0276991
0.0275059
0.0273088
0.0271077
0.0269029
0.0266942
0.0264817
0.0262654
0.0260455
0.0258219
0.0255947
0.025364
0.0251298
0.0248922
0.0246512
0.024407
0.0241596
0.023909
0.0236554
0.0233989
0.0231396
0.0228774
0.0226126
0.0223453
0.0220754
0.0218033
0.0215288
0.0212523
0.0209737
0.0206932
0.0204109
0.0201269
0.0198414
0.0195545
0.0192662
0.0189767
0.0186862
0.0183947
0.0181025
0.0178095
0.017516
0.017222
0.0169277
0.0166332
0.0163387
0.0160442
0.0157499
0.0154559
0.0151624
0.0148693
0.0145769
0.0142854
0.0139946
0.0137049
0.0134163
0.013129
0.0128429
0.0125583
0.0122752
0.0119938
0.0117141
0.0114362
0.0111602
0.0108863
0.0106144
0.0103447
0.0100773
0.00981226
0.00954961
0.00928947
0.00903189
0.00877695
0.00852472
0.00827526
0.00802862
0.00778488
0.00754408
0.00730629
0.00707154
0.00683989
0.00661139
0.00638607
0.00616398
0.00594516
0.00572964
0.00551745
0.00530864
0.00510321
0.00490121
0.00470265
0.00450756
0.00431595
0.00412785
0.00394325
0.00376219
0.00358466
0.00341068
0.00324025
0.00307337
0.00291005
0.00275028
0.00259406
0.00244139
0.00229225
0.00214665
0.00200457
0.00186599
0.0017309
0.00159929
0.00147114
0.00134642
0.00122512
0.0011072
0.000992653
0.000881442
0.00077354
0.000668917
0.000567541
0.00046938
0.000374397
0.000282558
0.000193826
0.000108161
2.55233e-05
-5.41273e-05
-0.000130833
-0.000204637
-0.000275584
-0.000343717
-0.000409084
-0.000471732
-0.000531706
-0.000589056
-0.00064383
-0.000696077
-0.000745848
-0.000793192
-0.000838159
-0.000880802
-0.000921171
-0.000959317
-0.000995291
-0.00102915
-0.00106093
-0.0010907
-0.0011185
-0.00114439
-0.00116842
-0.00119063
-0.00121107
-0.00122981
-0.00124688
-0.00126233
-0.00127622
-0.00128859
-0.00129949
-0.00130896
-0.00131706
-0.00132381
-0.00132928
-0.0013335
-0.00133651
-0.00133836
-0.00133909
-0.00133873
-0.00133733
-0.00133492
-0.00133154
-0.00132722
-0.00132199
-0.0013159
-0.00130897
-0.00130123
-0.00129271
-0.00128343
-0.00127343
-0.00126273
-0.00125135
-0.00123931
-0.00122662
-0.00121332
-0.00119941
-0.00118491
-0.00116984
-0.00115419
-0.00113798
-0.00112121
-0.00110389
-0.00108601
-0.00106757
-0.00104857
-0.001029
-0.00100883
-0.00098806
-0.000966659
-0.0009446
-0.000921848
-0.000898364
-0.0008741
-0.000848998
-0.000822996
-0.000796016
-0.000767973
-0.000738768
-0.000708291
-0.000676417
-0.000643013
-0.000607936
-0.000571038
-0.000532189
-0.000491319
-0.000448267
-0.000402146
-0.000355685
-0.000333444
-0.000274359
0.0314385
0.0313792
0.0313512
0.0313604
0.0313945
0.0314468
0.0315118
0.0315848
0.0316619
0.0317403
0.0318179
0.0318934
0.0319657
0.0320343
0.0320987
0.0321588
0.0322146
0.0322659
0.0323129
0.0323556
0.0323941
0.0324286
0.0324591
0.0324857
0.0325086
0.0325279
0.0325435
0.0325556
0.0325643
0.0325696
0.0325716
0.0325703
0.0325658
0.032558
0.0325471
0.032533
0.0325157
0.0324953
0.0324718
0.0324451
0.0324153
0.0323824
0.0323463
0.0323071
0.0322647
0.032219
0.0321702
0.0321182
0.0320629
0.0320043
0.0319424
0.0318772
0.0318086
0.0317366
0.0316612
0.0315823
0.0315
0.0314141
0.0313247
0.0312317
0.0311351
0.0310348
0.0309309
0.0308232
0.0307118
0.0305966
0.0304776
0.0303548
0.0302282
0.0300976
0.0299632
0.0298248
0.0296825
0.0295363
0.029386
0.0292318
0.0290736
0.0289114
0.0287452
0.028575
0.0284008
0.0282226
0.0280404
0.0278542
0.0276641
0.02747
0.027272
0.0270702
0.0268645
0.0266549
0.0264416
0.0262245
0.0260037
0.0257793
0.0255513
0.0253198
0.0250848
0.0248464
0.0246046
0.0243596
0.0241115
0.0238602
0.0236059
0.0233487
0.0230886
0.0228258
0.0225604
0.0222924
0.022022
0.0217492
0.0214743
0.0211972
0.0209181
0.0206371
0.0203544
0.02007
0.0197842
0.0194969
0.0192083
0.0189186
0.0186278
0.0183361
0.0180437
0.0177506
0.017457
0.0171629
0.0168686
0.0165741
0.0162797
0.0159853
0.0156911
0.0153972
0.0151038
0.014811
0.0145189
0.0142276
0.0139372
0.0136479
0.0133597
0.0130727
0.0127871
0.012503
0.0122204
0.0119395
0.0116604
0.0113831
0.0111077
0.0108344
0.0105632
0.0102943
0.0100276
0.00976323
0.00950134
0.00924197
0.00898519
0.00873107
0.00847967
0.00823105
0.00798528
0.00774241
0.00750251
0.00726561
0.00703178
0.00680105
0.00657349
0.00634911
0.00612798
0.00591012
0.00569556
0.00548435
0.00527652
0.00507208
0.00487106
0.00467349
0.00447939
0.00428878
0.00410167
0.00391808
0.00373801
0.00356148
0.00338849
0.00321905
0.00305317
0.00289084
0.00273205
0.00257682
0.00242512
0.00227697
0.00213233
0.00199121
0.00185359
0.00171945
0.00158879
0.00146157
0.00133778
0.00121739
0.00110039
0.000986737
0.000876417
0.000769396
0.000665643
0.000565127
0.000467813
0.000373667
0.000282652
0.000194731
0.000109865
2.80133e-05
-5.08651e-05
-0.000126813
-0.000199872
-0.000270089
-0.000337508
-0.000402175
-0.000464137
-0.000523442
-0.000580138
-0.000634274
-0.0006859
-0.000735065
-0.00078182
-0.000826216
-0.000868303
-0.000908133
-0.000945757
-0.000981226
-0.00101459
-0.00104591
-0.00107522
-0.00110259
-0.00112806
-0.00115168
-0.0011735
-0.00119358
-0.00121196
-0.00122869
-0.00124383
-0.00125741
-0.0012695
-0.00128012
-0.00128934
-0.00129719
-0.00130372
-0.00130898
-0.001313
-0.00131583
-0.00131751
-0.00131809
-0.00131759
-0.00131606
-0.00131354
-0.00131005
-0.00130565
-0.00130035
-0.00129419
-0.00128721
-0.00127943
-0.00127088
-0.00126158
-0.00125158
-0.00124087
-0.0012295
-0.00121748
-0.00120483
-0.00119157
-0.00117772
-0.00116328
-0.00114827
-0.0011327
-0.00111657
-0.0010999
-0.00108269
-0.00106493
-0.00104662
-0.00102776
-0.00100833
-0.000988329
-0.000967735
-0.000946528
-0.00092468
-0.000902163
-0.000878937
-0.000854962