/*--------------------------------*- C++ -*----------------------------------*\
| =========                 |                                                 |
| \\      /  F ield         | OpenFOAM: The Open Source CFD Toolbox           |
|  \\    /   O peration     | Version:  2512                                  |
|   \\  /    A nd           | Website:  www.openfoam.com                      |
|    \\/     M anipulation  |                                                 |
\*---------------------------------------------------------------------------*/
FoamFile
{
    version     2.0;
    format      ascii;
    arch        "LSB;label=32;scalar=64";
    class       surfaceScalarField;
    location    "2752";
    object      phi;
}
// * * * * * * * * * * * * * * * * * * * * * * * * * * * * * * * * * * * * * //

dimensions      [0 3 -1 0 0 0 0];

oriented        oriented;

internalField   nonuniform List<scalar> 
137571
(
0.000299412
-1.94501e-06
0.000299272
-3.30576e-06
0.000299288
-3.73016e-06
0.000299345
-3.91084e-06
0.000299404
-4.0081e-06
0.000299456
-4.06902e-06
0.000299498
-4.11258e-06
0.000299533
-4.14661e-06
0.000299563
-4.17458e-06
0.000299588
-4.19829e-06
0.000299611
-4.2188e-06
0.000299631
-4.23677e-06
0.000299649
-4.25268e-06
0.000299666
-4.26685e-06
0.000299682
-4.27955e-06
0.000299697
-4.29096e-06
0.000299711
-4.30125e-06
0.000299725
-4.31052e-06
0.000299738
-4.31889e-06
0.000299751
-4.32643e-06
0.000299764
-4.33322e-06
0.000299777
-4.3393e-06
0.000299789
-4.34472e-06
0.000299801
-4.34953e-06
0.000299814
-4.35376e-06
0.000299826
-4.35743e-06
0.000299838
-4.36057e-06
0.000299851
-4.36321e-06
0.000299863
-4.36535e-06
0.000299876
-4.36702e-06
0.000299888
-4.36822e-06
0.000299901
-4.36898e-06
0.000299914
-4.36929e-06
0.000299927
-4.36917e-06
0.00029994
-4.36861e-06
0.000299953
-4.36764e-06
0.000299967
-4.36625e-06
0.000299981
-4.36444e-06
0.000299995
-4.36222e-06
0.000300009
-4.35959e-06
0.000300024
-4.35654e-06
0.000300039
-4.35309e-06
0.000300054
-4.34923e-06
0.000300069
-4.34495e-06
0.000300085
-4.34026e-06
0.000300101
-4.33516e-06
0.000300117
-4.32965e-06
0.000300133
-4.32371e-06
0.00030015
-4.31735e-06
0.000300167
-4.31057e-06
0.000300185
-4.30335e-06
0.000300202
-4.29571e-06
0.000300221
-4.28763e-06
0.000300239
-4.27911e-06
0.000300258
-4.27015e-06
0.000300277
-4.26073e-06
0.000300297
-4.25086e-06
0.000300317
-4.24054e-06
0.000300337
-4.22975e-06
0.000300357
-4.21849e-06
0.000300378
-4.20676e-06
0.0003004
-4.19456e-06
0.000300422
-4.18187e-06
0.000300444
-4.16869e-06
0.000300466
-4.15502e-06
0.000300489
-4.14085e-06
0.000300512
-4.12618e-06
0.000300536
-4.111e-06
0.00030056
-4.09531e-06
0.000300584
-4.0791e-06
0.000300609
-4.06238e-06
0.000300634
-4.04513e-06
0.000300659
-4.02735e-06
0.000300685
-4.00904e-06
0.000300711
-3.99019e-06
0.000300738
-3.97081e-06
0.000300765
-3.95088e-06
0.000300792
-3.93042e-06
0.000300819
-3.9094e-06
0.000300847
-3.88784e-06
0.000300875
-3.86573e-06
0.000300904
-3.84307e-06
0.000300932
-3.81985e-06
0.000300961
-3.79609e-06
0.00030099
-3.77178e-06
0.00030102
-3.74692e-06
0.000301049
-3.72151e-06
0.000301079
-3.69555e-06
0.000301109
-3.66905e-06
0.000301139
-3.642e-06
0.00030117
-3.61442e-06
0.0003012
-3.58631e-06
0.000301231
-3.55766e-06
0.000301262
-3.52849e-06
0.000301293
-3.4988e-06
0.000301323
-3.4686e-06
0.000301354
-3.43789e-06
0.000301385
-3.40668e-06
0.000301417
-3.37498e-06
0.000301448
-3.3428e-06
0.000301479
-3.31015e-06
0.00030151
-3.27703e-06
0.00030154
-3.24346e-06
0.000301571
-3.20944e-06
0.000301602
-3.17499e-06
0.000301633
-3.14012e-06
0.000301663
-3.10485e-06
0.000301693
-3.06918e-06
0.000301723
-3.03312e-06
0.000301753
-2.9967e-06
0.000301783
-2.95993e-06
0.000301812
-2.92282e-06
0.000301841
-2.88538e-06
0.00030187
-2.84763e-06
0.000301898
-2.80959e-06
0.000301926
-2.77128e-06
0.000301954
-2.7327e-06
0.000301981
-2.69388e-06
0.000302008
-2.65483e-06
0.000302035
-2.61557e-06
0.000302061
-2.57612e-06
0.000302087
-2.5365e-06
0.000302112
-2.49671e-06
0.000302137
-2.45679e-06
0.000302161
-2.41674e-06
0.000302185
-2.37659e-06
0.000302208
-2.33636e-06
0.000302231
-2.29605e-06
0.000302253
-2.25569e-06
0.000302275
-2.21531e-06
0.000302296
-2.1749e-06
0.000302316
-2.1345e-06
0.000302336
-2.09412e-06
0.000302355
-2.05378e-06
0.000302374
-2.01349e-06
0.000302392
-1.97327e-06
0.00030241
-1.93314e-06
0.000302426
-1.89312e-06
0.000302443
-1.85321e-06
0.000302458
-1.81345e-06
0.000302473
-1.77384e-06
0.000302488
-1.73439e-06
0.000302501
-1.69513e-06
0.000302514
-1.65607e-06
0.000302527
-1.61723e-06
0.000302538
-1.57861e-06
0.00030255
-1.54023e-06
0.00030256
-1.50211e-06
0.00030257
-1.46425e-06
0.000302579
-1.42668e-06
0.000302588
-1.3894e-06
0.000302596
-1.35243e-06
0.000302603
-1.31577e-06
0.000302609
-1.27944e-06
0.000302615
-1.24345e-06
0.000302621
-1.20781e-06
0.000302626
-1.17254e-06
0.00030263
-1.13763e-06
0.000302633
-1.1031e-06
0.000302636
-1.06895e-06
0.000302639
-1.03521e-06
0.00030264
-1.00187e-06
0.000302642
-9.68939e-07
0.000302642
-9.3643e-07
0.000302642
-9.04349e-07
0.000302642
-8.72702e-07
0.000302641
-8.41495e-07
0.000302639
-8.10733e-07
0.000302637
-7.80424e-07
0.000302634
-7.50571e-07
0.000302631
-7.2118e-07
0.000302627
-6.92255e-07
0.000302623
-6.63801e-07
0.000302618
-6.3582e-07
0.000302613
-6.08318e-07
0.000302607
-5.81296e-07
0.000302601
-5.54758e-07
0.000302594
-5.28707e-07
0.000302587
-5.03144e-07
0.000302579
-4.78071e-07
0.000302571
-4.5349e-07
0.000302563
-4.29402e-07
0.000302554
-4.05808e-07
0.000302545
-3.82709e-07
0.000302535
-3.60105e-07
0.000302525
-3.37996e-07
0.000302515
-3.16382e-07
0.000302504
-2.95262e-07
0.000302493
-2.74636e-07
0.000302481
-2.54502e-07
0.00030247
-2.3486e-07
0.000302458
-2.15707e-07
0.000302445
-1.97042e-07
0.000302432
-1.78862e-07
0.000302419
-1.61165e-07
0.000302406
-1.43949e-07
0.000302393
-1.27211e-07
0.000302379
-1.10946e-07
0.000302365
-9.51532e-08
0.00030235
-7.98275e-08
0.000302336
-6.49653e-08
0.000302321
-5.05627e-08
0.000302306
-3.66154e-08
0.000302291
-2.31188e-08
0.000302276
-1.00683e-08
0.000302261
2.54104e-09
0.000302245
1.47143e-08
0.000302229
2.64566e-08
0.000302213
3.77736e-08
0.000302197
4.86708e-08
0.000302181
5.9154e-08
0.000302165
6.92292e-08
0.000302148
7.89023e-08
0.000302132
8.81798e-08
0.000302116
9.70678e-08
0.000302099
1.05573e-07
0.000302082
1.13702e-07
0.000302066
1.21461e-07
0.000302049
1.28858e-07
0.000302032
1.35898e-07
0.000302015
1.4259e-07
0.000301998
1.4894e-07
0.000301982
1.54955e-07
0.000301965
1.60643e-07
0.000301948
1.6601e-07
0.000301931
1.71064e-07
0.000301914
1.75812e-07
0.000301898
1.80262e-07
0.000301881
1.84421e-07
0.000301864
1.88296e-07
0.000301848
1.91894e-07
0.000301831
1.95223e-07
0.000301814
1.98289e-07
0.000301798
2.01102e-07
0.000301782
2.03666e-07
0.000301765
2.0599e-07
0.000301749
2.08081e-07
0.000301733
2.09945e-07
0.000301717
2.1159e-07
0.000301701
2.13023e-07
0.000301685
2.1425e-07
0.000301669
2.15278e-07
0.000301654
2.16114e-07
0.000301638
2.16765e-07
0.000301623
2.17235e-07
0.000301607
2.17533e-07
0.000301592
2.17664e-07
0.000301577
2.17634e-07
0.000301562
2.17449e-07
0.000301547
2.17116e-07
0.000301533
2.16638e-07
0.000301518
2.16023e-07
0.000301504
2.15276e-07
0.000301489
2.14401e-07
0.000301475
2.13404e-07
0.000301461
2.12289e-07
0.000301447
2.11062e-07
0.000301433
2.09727e-07
0.000301419
2.08288e-07
0.000301406
2.06749e-07
0.000301392
2.05115e-07
0.000301379
2.0339e-07
0.000301365
2.01576e-07
0.000301352
1.99678e-07
0.000301339
1.97699e-07
0.000301326
1.95641e-07
0.000301313
1.93508e-07
0.0003013
1.91302e-07
0.000301288
1.89025e-07
0.000301275
1.8668e-07
0.000301263
1.84269e-07
0.00030125
1.81792e-07
0.000301238
1.79252e-07
0.000301225
1.7665e-07
0.000301213
1.73986e-07
0.000301201
1.71261e-07
0.000301188
1.68475e-07
0.000301176
1.65628e-07
0.000301164
1.6272e-07
0.000301151
1.5975e-07
0.000301139
1.56717e-07
0.000301127
1.5362e-07
0.000301114
1.50457e-07
0.000301102
1.47227e-07
0.000301089
1.43927e-07
0.000301076
1.40555e-07
0.000301062
1.37109e-07
0.000301049
1.33588e-07
0.000301035
1.29991e-07
0.00030102
1.26319e-07
0.000301005
1.22577e-07
0.000300989
1.18775e-07
0.000300972
1.14933e-07
0.000300953
1.11096e-07
0.000300932
1.07347e-07
0.000300907
1.03841e-07
0.000300878
1.0087e-07
0.000300841
9.91023e-08
0.000300792
1.00523e-07
1.07458e-07
0.000299439
-1.38359e-06
0.000298984
-2.85129e-06
0.000298779
-3.52507e-06
0.000298715
-3.84692e-06
0.000298718
-4.01122e-06
0.000298751
-4.10164e-06
0.000298795
-4.15677e-06
0.000298843
-4.19415e-06
0.00029889
-4.2219e-06
0.000298936
-4.24397e-06
0.000298979
-4.26243e-06
0.000299021
-4.27837e-06
0.000299061
-4.29243e-06
0.000299099
-4.30501e-06
0.000299136
-4.31637e-06
0.000299171
-4.32668e-06
0.000299206
-4.33607e-06
0.00029924
-4.34465e-06
0.000299274
-4.35248e-06
0.000299307
-4.35963e-06
0.00029934
-4.36614e-06
0.000299373
-4.37206e-06
0.000299405
-4.37742e-06
0.000299438
-4.38225e-06
0.000299471
-4.38658e-06
0.000299504
-4.39042e-06
0.000299537
-4.39379e-06
0.000299571
-4.39671e-06
0.000299604
-4.39919e-06
0.000299639
-4.40124e-06
0.000299673
-4.40287e-06
0.000299708
-4.40409e-06
0.000299744
-4.4049e-06
0.00029978
-4.40532e-06
0.000299817
-4.40534e-06
0.000299854
-4.40497e-06
0.000299892
-4.40422e-06
0.000299931
-4.40307e-06
0.00029997
-4.40155e-06
0.00030001
-4.39963e-06
0.000300051
-4.39734e-06
0.000300093
-4.39465e-06
0.000300135
-4.39158e-06
0.000300178
-4.38813e-06
0.000300222
-4.38428e-06
0.000300267
-4.38004e-06
0.000300313
-4.3754e-06
0.000300359
-4.37036e-06
0.000300407
-4.36493e-06
0.000300455
-4.35908e-06
0.000300505
-4.35282e-06
0.000300555
-4.34615e-06
0.000300607
-4.33906e-06
0.000300659
-4.33154e-06
0.000300713
-4.3236e-06
0.000300767
-4.31521e-06
0.000300823
-4.30639e-06
0.000300879
-4.29711e-06
0.000300937
-4.28739e-06
0.000300996
-4.2772e-06
0.000301055
-4.26655e-06
0.000301116
-4.25543e-06
0.000301178
-4.24383e-06
0.000301241
-4.23174e-06
0.000301305
-4.21916e-06
0.000301371
-4.20609e-06
0.000301437
-4.19251e-06
0.000301504
-4.17843e-06
0.000301573
-4.16382e-06
0.000301643
-4.1487e-06
0.000301713
-4.13305e-06
0.000301785
-4.11686e-06
0.000301858
-4.10014e-06
0.000301932
-4.08287e-06
0.000302006
-4.06505e-06
0.000302082
-4.04667e-06
0.000302159
-4.02774e-06
0.000302237
-4.00824e-06
0.000302316
-3.98817e-06
0.000302395
-3.96753e-06
0.000302476
-3.94631e-06
0.000302557
-3.92452e-06
0.00030264
-3.90214e-06
0.000302723
-3.87918e-06
0.000302807
-3.85564e-06
0.000302891
-3.83151e-06
0.000302977
-3.80679e-06
0.000303063
-3.78149e-06
0.000303149
-3.7556e-06
0.000303236
-3.72912e-06
0.000303324
-3.70206e-06
0.000303412
-3.67442e-06
0.0003035
-3.6462e-06
0.000303589
-3.6174e-06
0.000303679
-3.58804e-06
0.000303768
-3.55811e-06
0.000303858
-3.52761e-06
0.000303948
-3.49656e-06
0.000304038
-3.46497e-06
0.000304128
-3.43283e-06
0.000304218
-3.40017e-06
0.000304308
-3.36698e-06
0.000304398
-3.33327e-06
0.000304487
-3.29906e-06
0.000304577
-3.26436e-06
0.000304666
-3.22918e-06
0.000304754
-3.19353e-06
0.000304843
-3.15743e-06
0.00030493
-3.12088e-06
0.000305017
-3.08391e-06
0.000305104
-3.04652e-06
0.00030519
-3.00873e-06
0.000305275
-2.97055e-06
0.00030536
-2.93202e-06
0.000305443
-2.89313e-06
0.000305526
-2.8539e-06
0.000305607
-2.81436e-06
0.000305688
-2.77453e-06
0.000305768
-2.73441e-06
0.000305846
-2.69403e-06
0.000305923
-2.65341e-06
0.000305999
-2.61256e-06
0.000306074
-2.57151e-06
0.000306148
-2.53027e-06
0.00030622
-2.48887e-06
0.00030629
-2.44732e-06
0.00030636
-2.40564e-06
0.000306428
-2.36386e-06
0.000306494
-2.32199e-06
0.000306559
-2.28005e-06
0.000306622
-2.23807e-06
0.000306683
-2.19605e-06
0.000306743
-2.15403e-06
0.000306801
-2.11202e-06
0.000306858
-2.07004e-06
0.000306913
-2.0281e-06
0.000306966
-1.98624e-06
0.000307017
-1.94446e-06
0.000307067
-1.90278e-06
0.000307115
-1.86123e-06
0.000307161
-1.81981e-06
0.000307205
-1.77856e-06
0.000307247
-1.73747e-06
0.000307288
-1.69658e-06
0.000307326
-1.6559e-06
0.000307363
-1.61544e-06
0.000307398
-1.57522e-06
0.000307431
-1.53525e-06
0.000307463
-1.49555e-06
0.000307492
-1.45613e-06
0.00030752
-1.41701e-06
0.000307545
-1.3782e-06
0.000307569
-1.33971e-06
0.000307591
-1.30156e-06
0.000307612
-1.26375e-06
0.00030763
-1.22631e-06
0.000307647
-1.18924e-06
0.000307662
-1.15254e-06
0.000307675
-1.11624e-06
0.000307686
-1.08035e-06
0.000307696
-1.04486e-06
0.000307704
-1.00979e-06
0.00030771
-9.75158e-07
0.000307715
-9.4096e-07
0.000307718
-9.07207e-07
0.000307719
-8.73907e-07
0.000307718
-8.41068e-07
0.000307716
-8.08695e-07
0.000307713
-7.76795e-07
0.000307707
-7.45374e-07
0.000307701
-7.14437e-07
0.000307692
-6.83989e-07
0.000307683
-6.54036e-07
0.000307671
-6.24581e-07
0.000307659
-5.95629e-07
0.000307645
-5.67182e-07
0.000307629
-5.39246e-07
0.000307612
-5.11821e-07
0.000307594
-4.84912e-07
0.000307574
-4.58519e-07
0.000307554
-4.32646e-07
0.000307532
-4.07294e-07
0.000307508
-3.82464e-07
0.000307484
-3.58156e-07
0.000307458
-3.34373e-07
0.000307431
-3.11113e-07
0.000307403
-2.88377e-07
0.000307374
-2.66165e-07
0.000307344
-2.44477e-07
0.000307313
-2.2331e-07
0.00030728
-2.02665e-07
0.000307247
-1.8254e-07
0.000307213
-1.62933e-07
0.000307178
-1.43841e-07
0.000307142
-1.25263e-07
0.000307105
-1.07197e-07
0.000307068
-8.96389e-08
0.000307029
-7.25861e-08
0.00030699
-5.60353e-08
0.000306951
-3.99827e-08
0.00030691
-2.44247e-08
0.000306869
-9.35707e-09
0.000306827
5.2245e-09
0.000306784
1.93246e-08
0.000306741
3.2948e-08
0.000306698
4.60997e-08
0.000306654
5.8785e-08
0.000306609
7.10093e-08
0.000306564
8.27783e-08
0.000306519
9.40979e-08
0.000306473
1.04974e-07
0.000306427
1.15413e-07
0.00030638
1.25421e-07
0.000306334
1.35005e-07
0.000306286
1.44172e-07
0.000306239
1.52928e-07
0.000306191
1.61281e-07
0.000306144
1.69237e-07
0.000306096
1.76804e-07
0.000306048
1.83989e-07
0.000305999
1.908e-07
0.000305951
1.97245e-07
0.000305903
2.0333e-07
0.000305854
2.09065e-07
0.000305806
2.14455e-07
0.000305757
2.19511e-07
0.000305709
2.24239e-07
0.000305661
2.28647e-07
0.000305612
2.32744e-07
0.000305564
2.36536e-07
0.000305516
2.40034e-07
0.000305468
2.43243e-07
0.00030542
2.46173e-07
0.000305372
2.48831e-07
0.000305325
2.51225e-07
0.000305277
2.53364e-07
0.00030523
2.55254e-07
0.000305183
2.56904e-07
0.000305137
2.58321e-07
0.00030509
2.59514e-07
0.000305044
2.60489e-07
0.000304998
2.61254e-07
0.000304952
2.61817e-07
0.000304907
2.62185e-07
0.000304862
2.62364e-07
0.000304817
2.62363e-07
0.000304772
2.62187e-07
0.000304728
2.61845e-07
0.000304684
2.61342e-07
0.000304641
2.60685e-07
0.000304597
2.5988e-07
0.000304554
2.58935e-07
0.000304512
2.57855e-07
0.00030447
2.56645e-07
0.000304428
2.55312e-07
0.000304386
2.53862e-07
0.000304345
2.52301e-07
0.000304304
2.50632e-07
0.000304263
2.48863e-07
0.000304223
2.46997e-07
0.000304183
2.4504e-07
0.000304144
2.42997e-07
0.000304104
2.40872e-07
0.000304065
2.3867e-07
0.000304027
2.36394e-07
0.000303988
2.3405e-07
0.00030395
2.31641e-07
0.000303912
2.29171e-07
0.000303875
2.26644e-07
0.000303837
2.24064e-07
0.0003038
2.21434e-07
0.000303763
2.18757e-07
0.000303726
2.16038e-07
0.00030369
2.13279e-07
0.000303653
2.10485e-07
0.000303617
2.07659e-07
0.00030358
2.04804e-07
0.000303544
2.01924e-07
0.000303508
1.99025e-07
0.000303471
1.96111e-07
0.000303435
1.93189e-07
0.000303398
1.90264e-07
0.000303361
1.87347e-07
0.000303324
1.84447e-07
0.000303287
1.81579e-07
0.000303248
1.78761e-07
0.000303209
1.76016e-07
0.00030317
1.73375e-07
0.000303129
1.70883e-07
0.000303086
1.68597e-07
0.000303042
1.66601e-07
0.000302996
1.65014e-07
0.000302947
1.64007e-07
0.000302894
1.63834e-07
0.000302837
1.64873e-07
0.000302773
1.67687e-07
0.000302701
1.73088e-07
0.000302618
1.82251e-07
0.000302521
1.96783e-07
2.15008e-07
0.000299628
-1.01203e-06
0.000299141
-2.36433e-06
0.000298786
-3.16947e-06
0.000298571
-3.63228e-06
0.000298458
-3.89776e-06
0.000298409
-4.05312e-06
0.0002984
-4.14774e-06
0.000298415
-4.20848e-06
0.000298443
-4.24986e-06
0.000298478
-4.27983e-06
0.000298519
-4.30281e-06
0.000298562
-4.32131e-06
0.000298606
-4.33681e-06
0.000298651
-4.35018e-06
0.000298697
-4.36198e-06
0.000298743
-4.37255e-06
0.000298789
-4.38213e-06
0.000298835
-4.39088e-06
0.000298881
-4.3989e-06
0.000298928
-4.40629e-06
0.000298975
-4.41309e-06
0.000299022
-4.41936e-06
0.00029907
-4.42513e-06
0.000299118
-4.43044e-06
0.000299167
-4.43529e-06
0.000299216
-4.43972e-06
0.000299266
-4.44374e-06
0.000299317
-4.44736e-06
0.000299368
-4.4506e-06
0.000299421
-4.45345e-06
0.000299474
-4.45593e-06
0.000299528
-4.45805e-06
0.000299582
-4.45981e-06
0.000299638
-4.46122e-06
0.000299695
-4.46227e-06
0.000299753
-4.46297e-06
0.000299812
-4.46332e-06
0.000299873
-4.46332e-06
0.000299934
-4.46298e-06
0.000299997
-4.46229e-06
0.000300061
-4.46125e-06
0.000300126
-4.45986e-06
0.000300192
-4.45811e-06
0.00030026
-4.45601e-06
0.00030033
-4.45356e-06
0.0003004
-4.45074e-06
0.000300472
-4.44755e-06
0.000300546
-4.444e-06
0.000300621
-4.44007e-06
0.000300698
-4.43577e-06
0.000300776
-4.43107e-06
0.000300856
-4.42599e-06
0.000300937
-4.42051e-06
0.000301021
-4.41463e-06
0.000301105
-4.40834e-06
0.000301192
-4.40164e-06
0.00030128
-4.39451e-06
0.00030137
-4.38695e-06
0.000301461
-4.37895e-06
0.000301555
-4.37051e-06
0.00030165
-4.36161e-06
0.000301746
-4.35225e-06
0.000301845
-4.34243e-06
0.000301945
-4.33212e-06
0.000302048
-4.32133e-06
0.000302151
-4.31004e-06
0.000302257
-4.29824e-06
0.000302365
-4.28594e-06
0.000302474
-4.27311e-06
0.000302585
-4.25975e-06
0.000302698
-4.24585e-06
0.000302812
-4.23141e-06
0.000302929
-4.21641e-06
0.000303047
-4.20084e-06
0.000303166
-4.18471e-06
0.000303288
-4.16799e-06
0.000303411
-4.15068e-06
0.000303535
-4.13278e-06
0.000303661
-4.11428e-06
0.000303789
-4.09516e-06
0.000303918
-4.07543e-06
0.000304049
-4.05507e-06
0.000304181
-4.03409e-06
0.000304314
-4.01247e-06
0.000304448
-3.99022e-06
0.000304584
-3.96732e-06
0.000304721
-3.94378e-06
0.000304859
-3.91958e-06
0.000304998
-3.89474e-06
0.000305139
-3.86924e-06
0.00030528
-3.84308e-06
0.000305421
-3.81627e-06
0.000305564
-3.78881e-06
0.000305707
-3.76069e-06
0.000305851
-3.73191e-06
0.000305996
-3.70249e-06
0.00030614
-3.67242e-06
0.000306286
-3.64171e-06
0.000306431
-3.61036e-06
0.000306576
-3.57839e-06
0.000306722
-3.54578e-06
0.000306868
-3.51256e-06
0.000307013
-3.47874e-06
0.000307158
-3.44431e-06
0.000307303
-3.40929e-06
0.000307448
-3.3737e-06
0.000307592
-3.33754e-06
0.000307735
-3.30083e-06
0.000307878
-3.26358e-06
0.00030802
-3.2258e-06
0.000308161
-3.18751e-06
0.000308301
-3.14873e-06
0.00030844
-3.10947e-06
0.000308577
-3.06975e-06
0.000308714
-3.02958e-06
0.000308849
-2.989e-06
0.000308983
-2.948e-06
0.000309115
-2.90662e-06
0.000309245
-2.86487e-06
0.000309374
-2.82278e-06
0.000309501
-2.78036e-06
0.000309626
-2.73763e-06
0.000309749
-2.69463e-06
0.00030987
-2.65136e-06
0.000309989
-2.60786e-06
0.000310106
-2.56414e-06
0.000310221
-2.52022e-06
0.000310333
-2.47614e-06
0.000310443
-2.43191e-06
0.00031055
-2.38755e-06
0.000310655
-2.34309e-06
0.000310758
-2.29854e-06
0.000310858
-2.25394e-06
0.000310955
-2.20931e-06
0.00031105
-2.16466e-06
0.000311142
-2.12002e-06
0.000311231
-2.07541e-06
0.000311317
-2.03086e-06
0.000311401
-1.98637e-06
0.000311481
-1.94199e-06
0.000311559
-1.89771e-06
0.000311634
-1.85358e-06
0.000311707
-1.80959e-06
0.000311776
-1.76579e-06
0.000311842
-1.72217e-06
0.000311905
-1.67877e-06
0.000311966
-1.63561e-06
0.000312023
-1.59268e-06
0.000312078
-1.55003e-06
0.000312129
-1.50766e-06
0.000312178
-1.46558e-06
0.000312223
-1.42382e-06
0.000312266
-1.38239e-06
0.000312306
-1.34131e-06
0.000312343
-1.30058e-06
0.000312377
-1.26022e-06
0.000312408
-1.22025e-06
0.000312436
-1.18068e-06
0.000312461
-1.14152e-06
0.000312483
-1.10278e-06
0.000312503
-1.06447e-06
0.00031252
-1.02661e-06
0.000312534
-9.89204e-07
0.000312545
-9.5226e-07
0.000312554
-9.15788e-07
0.00031256
-8.79799e-07
0.000312563
-8.44299e-07
0.000312563
-8.09297e-07
0.000312561
-7.748e-07
0.000312557
-7.40816e-07
0.00031255
-7.0735e-07
0.00031254
-6.74409e-07
0.000312528
-6.41998e-07
0.000312514
-6.10123e-07
0.000312497
-5.78789e-07
0.000312478
-5.48e-07
0.000312456
-5.1776e-07
0.000312433
-4.88073e-07
0.000312407
-4.58942e-07
0.000312378
-4.3037e-07
0.000312348
-4.0236e-07
0.000312316
-3.74914e-07
0.000312281
-3.48033e-07
0.000312245
-3.21721e-07
0.000312206
-2.95976e-07
0.000312166
-2.70801e-07
0.000312124
-2.46196e-07
0.00031208
-2.22161e-07
0.000312034
-1.98696e-07
0.000311987
-1.75801e-07
0.000311937
-1.53474e-07
0.000311887
-1.31715e-07
0.000311834
-1.10522e-07
0.00031178
-8.98934e-08
0.000311725
-6.98274e-08
0.000311668
-5.03215e-08
0.00031161
-3.13731e-08
0.00031155
-1.29792e-08
0.000311489
4.86343e-09
0.000311427
2.21583e-08
0.000311364
3.89092e-08
0.000311299
5.51202e-08
0.000311234
7.07958e-08
0.000311167
8.59406e-08
0.000311099
1.00559e-07
0.000311031
1.14658e-07
0.000310961
1.28241e-07
0.000310891
1.41314e-07
0.00031082
1.53884e-07
0.000310748
1.65956e-07
0.000310676
1.77537e-07
0.000310602
1.88634e-07
0.000310529
1.99254e-07
0.000310454
2.09403e-07
0.000310379
2.19089e-07
0.000310304
2.2832e-07
0.000310228
2.37103e-07
0.000310152
2.45445e-07
0.000310075
2.53355e-07
0.000309998
2.60842e-07
0.000309921
2.67912e-07
0.000309844
2.74576e-07
0.000309766
2.8084e-07
0.000309689
2.86715e-07
0.000309611
2.92208e-07
0.000309533
2.97329e-07
0.000309455
3.02086e-07
0.000309378
3.06488e-07
0.0003093
3.10545e-07
0.000309222
3.14265e-07
0.000309144
3.17657e-07
0.000309067
3.20731e-07
0.00030899
3.23496e-07
0.000308912
3.2596e-07
0.000308836
3.28133e-07
0.000308759
3.30025e-07
0.000308683
3.31643e-07
0.000308606
3.32996e-07
0.000308531
3.34095e-07
0.000308455
3.34947e-07
0.00030838
3.35562e-07
0.000308305
3.35948e-07
0.000308231
3.36113e-07
0.000308157
3.36067e-07
0.000308084
3.35817e-07
0.000308011
3.35372e-07
0.000307938
3.3474e-07
0.000307866
3.3393e-07
0.000307795
3.32948e-07
0.000307723
3.31804e-07
0.000307653
3.30504e-07
0.000307583
3.29056e-07
0.000307513
3.27468e-07
0.000307444
3.25746e-07
0.000307375
3.23899e-07
0.000307307
3.21933e-07
0.00030724
3.19854e-07
0.000307173
3.1767e-07
0.000307106
3.15388e-07
0.00030704
3.13013e-07
0.000306975
3.10553e-07
0.00030691
3.08013e-07
0.000306845
3.05399e-07
0.000306781
3.02719e-07
0.000306718
2.99977e-07
0.000306654
2.9718e-07
0.000306592
2.94334e-07
0.000306529
2.91444e-07
0.000306468
2.88518e-07
0.000306406
2.8556e-07
0.000306345
2.82577e-07
0.000306284
2.79577e-07
0.000306224
2.76564e-07
0.000306163
2.73547e-07
0.000306103
2.70533e-07
0.000306043
2.67531e-07
0.000305984
2.64549e-07
0.000305924
2.61599e-07
0.000305864
2.58691e-07
0.000305805
2.5584e-07
0.000305745
2.53061e-07
0.000305685
2.50375e-07
0.000305624
2.47805e-07
0.000305563
2.4538e-07
0.000305502
2.43136e-07
0.000305439
2.41119e-07
0.000305376
2.39388e-07
0.000305311
2.38019e-07
0.000305245
2.37109e-07
0.000305177
2.3679e-07
0.000305106
2.37237e-07
0.000305033
2.38681e-07
0.000304955
2.4144e-07
0.000304873
2.45937e-07
0.000304785
2.52737e-07
0.00030469
2.62554e-07
0.000304587
2.76202e-07
0.000304475
2.94403e-07
0.000304355
3.17002e-07
3.38513e-07
0.000299751
-7.62613e-07
0.000299336
-1.94985e-06
0.00029895
-2.78324e-06
0.000298653
-3.33522e-06
0.000298447
-3.69171e-06
0.000298315
-3.92112e-06
0.000298237
-4.07048e-06
0.000298199
-4.16995e-06
0.000298187
-4.23824e-06
0.000298194
-4.28682e-06
0.000298214
-4.32275e-06
0.000298243
-4.35037e-06
0.000298279
-4.37239e-06
0.000298319
-4.39054e-06
0.000298363
-4.40593e-06
0.00029841
-4.41929e-06
0.000298459
-4.43111e-06
0.00029851
-4.44173e-06
0.000298562
-4.45137e-06
0.000298616
-4.46021e-06
0.000298671
-4.46836e-06
0.000298728
-4.47591e-06
0.000298786
-4.48293e-06
0.000298845
-4.48946e-06
0.000298905
-4.49555e-06
0.000298967
-4.50122e-06
0.000299029
-4.5065e-06
0.000299093
-4.51141e-06
0.000299159
-4.51596e-06
0.000299225
-4.52016e-06
0.000299294
-4.52403e-06
0.000299363
-4.52758e-06
0.000299434
-4.5308e-06
0.000299507
-4.5337e-06
0.000299581
-4.53629e-06
0.000299656
-4.53858e-06
0.000299733
-4.54055e-06
0.000299812
-4.54222e-06
0.000299893
-4.54358e-06
0.000299975
-4.54463e-06
0.000300059
-4.54537e-06
0.000300145
-4.54581e-06
0.000300233
-4.54592e-06
0.000300323
-4.54573e-06
0.000300414
-4.54521e-06
0.000300508
-4.54437e-06
0.000300604
-4.5432e-06
0.000300701
-4.5417e-06
0.000300801
-4.53986e-06
0.000300903
-4.53768e-06
0.000301007
-4.53514e-06
0.000301113
-4.53224e-06
0.000301222
-4.52898e-06
0.000301333
-4.52535e-06
0.000301446
-4.52134e-06
0.000301561
-4.51693e-06
0.000301679
-4.51213e-06
0.000301799
-4.50692e-06
0.000301921
-4.50129e-06
0.000302046
-4.49523e-06
0.000302173
-4.48874e-06
0.000302302
-4.4818e-06
0.000302434
-4.4744e-06
0.000302569
-4.46653e-06
0.000302705
-4.45818e-06
0.000302845
-4.44933e-06
0.000302987
-4.43999e-06
0.000303131
-4.43012e-06
0.000303277
-4.41973e-06
0.000303426
-4.4088e-06
0.000303578
-4.39731e-06
0.000303732
-4.38526e-06
0.000303888
-4.37263e-06
0.000304046
-4.35942e-06
0.000304207
-4.3456e-06
0.000304371
-4.33117e-06
0.000304536
-4.31612e-06
0.000304704
-4.30042e-06
0.000304873
-4.28409e-06
0.000305045
-4.26709e-06
0.000305219
-4.24942e-06
0.000305395
-4.23107e-06
0.000305573
-4.21204e-06
0.000305753
-4.1923e-06
0.000305935
-4.17186e-06
0.000306118
-4.1507e-06
0.000306303
-4.12881e-06
0.00030649
-4.10619e-06
0.000306678
-4.08284e-06
0.000306867
-4.05874e-06
0.000307058
-4.03389e-06
0.00030725
-4.00829e-06
0.000307443
-3.98193e-06
0.000307637
-3.95482e-06
0.000307832
-3.92694e-06
0.000308028
-3.8983e-06
0.000308225
-3.86891e-06
0.000308422
-3.83875e-06
0.000308619
-3.80784e-06
0.000308817
-3.77618e-06
0.000309015
-3.74377e-06
0.000309213
-3.71062e-06
0.000309411
-3.67673e-06
0.000309609
-3.64212e-06
0.000309806
-3.60679e-06
0.000310004
-3.57075e-06
0.0003102
-3.53402e-06
0.000310396
-3.4966e-06
0.000310591
-3.45852e-06
0.000310785
-3.41977e-06
0.000310978
-3.38039e-06
0.000311169
-3.34038e-06
0.00031136
-3.29977e-06
0.000311548
-3.25857e-06
0.000311736
-3.2168e-06
0.000311921
-3.17448e-06
0.000312105
-3.13163e-06
0.000312286
-3.08827e-06
0.000312466
-3.04443e-06
0.000312643
-3.00013e-06
0.000312818
-2.9554e-06
0.000312991
-2.91025e-06
0.000313161
-2.86471e-06
0.000313328
-2.8188e-06
0.000313493
-2.77256e-06
0.000313655
-2.72601e-06
0.000313814
-2.67917e-06
0.00031397
-2.63206e-06
0.000314123
-2.58473e-06
0.000314272
-2.53719e-06
0.000314419
-2.48947e-06
0.000314562
-2.44159e-06
0.000314701
-2.39359e-06
0.000314838
-2.34548e-06
0.00031497
-2.2973e-06
0.000315099
-2.24908e-06
0.000315225
-2.20083e-06
0.000315346
-2.15258e-06
0.000315464
-2.10436e-06
0.000315579
-2.0562e-06
0.000315689
-2.00811e-06
0.000315796
-1.96012e-06
0.000315898
-1.91227e-06
0.000315997
-1.86456e-06
0.000316092
-1.81702e-06
0.000316183
-1.76968e-06
0.00031627
-1.72255e-06
0.000316353
-1.67566e-06
0.000316432
-1.62903e-06
0.000316507
-1.58268e-06
0.000316578
-1.53662e-06
0.000316645
-1.49089e-06
0.000316708
-1.44548e-06
0.000316767
-1.40043e-06
0.000316822
-1.35575e-06
0.000316873
-1.31145e-06
0.000316921
-1.26755e-06
0.000316964
-1.22408e-06
0.000317004
-1.18103e-06
0.000317039
-1.13843e-06
0.000317071
-1.09629e-06
0.000317099
-1.05461e-06
0.000317123
-1.01343e-06
0.000317144
-9.72737e-07
0.000317161
-9.32553e-07
0.000317174
-8.92887e-07
0.000317183
-8.53748e-07
0.000317189
-8.15147e-07
0.000317191
-7.77091e-07
0.00031719
-7.3959e-07
0.000317185
-7.02652e-07
0.000317177
-6.66284e-07
0.000317166
-6.30493e-07
0.000317151
-5.95286e-07
0.000317133
-5.60669e-07
0.000317111
-5.26648e-07
0.000317087
-4.93227e-07
0.000317059
-4.60412e-07
0.000317028
-4.28206e-07
0.000316995
-3.96615e-07
0.000316958
-3.65641e-07
0.000316918
-3.35288e-07
0.000316876
-3.05559e-07
0.000316831
-2.76455e-07
0.000316783
-2.47979e-07
0.000316732
-2.20132e-07
0.000316679
-1.92916e-07
0.000316623
-1.66332e-07
0.000316564
-1.40379e-07
0.000316504
-1.15059e-07
0.000316441
-9.03702e-08
0.000316375
-6.63132e-08
0.000316308
-4.28866e-08
0.000316238
-2.00892e-08
0.000316166
2.08073e-09
0.000316092
2.36251e-08
0.000316016
4.45462e-08
0.000315938
6.48468e-08
0.000315859
8.45299e-08
0.000315777
1.03599e-07
0.000315694
1.22057e-07
0.000315609
1.39909e-07
0.000315523
1.57159e-07
0.000315435
1.73812e-07
0.000315346
1.89872e-07
0.000315255
2.05346e-07
0.000315163
2.20238e-07
0.00031507
2.34554e-07
0.000314975
2.48302e-07
0.00031488
2.61487e-07
0.000314783
2.74117e-07
0.000314686
2.86198e-07
0.000314587
2.97737e-07
0.000314488
3.08744e-07
0.000314388
3.19225e-07
0.000314287
3.29189e-07
0.000314185
3.38645e-07
0.000314083
3.476e-07
0.00031398
3.56064e-07
0.000313877
3.64047e-07
0.000313773
3.71556e-07
0.000313669
3.78602e-07
0.000313565
3.85195e-07
0.00031346
3.91344e-07
0.000313356
3.97059e-07
0.000313251
4.0235e-07
0.000313145
4.07227e-07
0.00031304
4.11701e-07
0.000312935
4.15782e-07
0.00031283
4.19481e-07
0.000312725
4.22807e-07
0.00031262
4.25772e-07
0.000312515
4.28386e-07
0.00031241
4.30659e-07
0.000312306
4.32603e-07
0.000312201
4.34228e-07
0.000312097
4.35544e-07
0.000311994
4.36562e-07
0.000311891
4.37292e-07
0.000311788
4.37745e-07
0.000311686
4.37932e-07
0.000311584
4.37862e-07
0.000311482
4.37546e-07
0.000311381
4.36994e-07
0.000311281
4.36216e-07
0.000311181
4.35221e-07
0.000311082
4.34021e-07
0.000310983
4.32624e-07
0.000310885
4.31041e-07
0.000310787
4.2928e-07
0.000310691
4.2735e-07
0.000310594
4.25263e-07
0.000310499
4.23025e-07
0.000310404
4.20647e-07
0.00031031
4.18137e-07
0.000310216
4.15505e-07
0.000310123
4.12757e-07
0.000310031
4.09905e-07
0.000309939
4.06955e-07
0.000309849
4.03916e-07
0.000309758
4.00796e-07
0.000309669
3.97605e-07
0.00030958
3.94349e-07
0.000309491
3.91038e-07
0.000309404
3.87679e-07
0.000309317
3.84282e-07
0.00030923
3.80854e-07
0.000309144
3.77405e-07
0.000309059
3.73943e-07
0.000308974
3.70478e-07
0.000308889
3.67019e-07
0.000308805
3.63577e-07
0.000308722
3.60162e-07
0.000308638
3.56787e-07
0.000308556
3.53464e-07
0.000308473
3.50208e-07
0.00030839
3.47034e-07
0.000308308
3.43962e-07
0.000308226
3.41012e-07
0.000308143
3.38208e-07
0.000308061
3.35579e-07
0.000307978
3.3316e-07
0.000307895
3.30991e-07
0.000307811
3.29125e-07
0.000307727
3.27622e-07
0.000307641
3.2656e-07
0.000307555
3.26036e-07
0.000307466
3.26172e-07
0.000307376
3.27124e-07