/*--------------------------------*- C++ -*----------------------------------*\
| =========                 |                                                 |
| \\      /  F ield         | OpenFOAM: The Open Source CFD Toolbox           |
|  \\    /   O peration     | Version:  2512                                  |
|   \\  /    A nd           | Website:  www.openfoam.com                      |
|    \\/     M anipulation  |                                                 |
\*---------------------------------------------------------------------------*/
FoamFile
{
    version     2.0;
    format      ascii;
    arch        "LSB;label=32;scalar=64";
    class       volSymmTensorField;
    location    "2752";
    object      turbulenceProperties:devReff;
}
// * * * * * * * * * * * * * * * * * * * * * * * * * * * * * * * * * * * * * //

dimensions      [0 2 -2 0 0 0 0];

internalField   nonuniform List<symmTensor> 
66422
(
(-0.00095563 0.00395212 -0 0.0028197 -0 -0.00186407)
(-0.00228778 0.00192708 -0 0.00514234 -0 -0.00285457)
(-0.0030395 0.00133807 -0 0.00606869 -0 -0.0030292)
(-0.00328326 0.00115836 -0 0.00642233 -0 -0.00313907)
(-0.00335474 0.00107067 -0 0.00658377 -0 -0.00322903)
(-0.00339313 0.00100004 -0 0.0066827 -0 -0.00328958)
(-0.00341899 0.000937549 -0 0.00675243 -0 -0.00333344)
(-0.00343847 0.000882482 -0 0.00680609 -0 -0.00336762)
(-0.00345486 0.000833784 -0 0.00685006 -0 -0.0033952)
(-0.00346938 0.000790319 -0 0.00688741 -0 -0.00341803)
(-0.00348248 0.000751096 -0 0.00691984 -0 -0.00343736)
(-0.00349439 0.000715285 -0 0.00694838 -0 -0.00345399)
(-0.00350525 0.000682209 -0 0.00697373 -0 -0.00346848)
(-0.00351518 0.000651322 -0 0.0069964 -0 -0.00348123)
(-0.00352426 0.00062219 -0 0.00701678 -0 -0.00349252)
(-0.00353257 0.000594463 -0 0.00703514 -0 -0.00350257)
(-0.00354017 0.000567858 -0 0.00705172 -0 -0.00351155)
(-0.00354712 0.000542145 -0 0.00706671 -0 -0.00351959)
(-0.00355347 0.000517135 -0 0.00708027 -0 -0.00352679)
(-0.00355926 0.00049267 -0 0.0070925 -0 -0.00353325)
(-0.00356451 0.000468618 -0 0.00710353 -0 -0.00353901)
(-0.00356927 0.000444867 -0 0.00711343 -0 -0.00354416)
(-0.00357356 0.000421323 -0 0.00712228 -0 -0.00354872)
(-0.0035774 0.000397904 -0 0.00713014 -0 -0.00355273)
(-0.00358082 0.000374537 -0 0.00713706 -0 -0.00355624)
(-0.00358382 0.000351161 -0 0.00714309 -0 -0.00355927)
(-0.00358643 0.000327719 -0 0.00714827 -0 -0.00356184)
(-0.00358865 0.000304164 -0 0.00715262 -0 -0.00356397)
(-0.0035905 0.000280451 -0 0.00715618 -0 -0.00356568)
(-0.00359198 0.000256539 -0 0.00715897 -0 -0.00356699)
(-0.00359312 0.000232393 -0 0.00716101 -0 -0.00356789)
(-0.0035939 0.00020798 -0 0.00716232 -0 -0.00356842)
(-0.00359434 0.000183267 -0 0.00716291 -0 -0.00356857)
(-0.00359445 0.000158227 -0 0.00716279 -0 -0.00356835)
(-0.00359422 0.000132834 -0 0.00716198 -0 -0.00356777)
(-0.00359366 0.000107061 -0 0.00716049 -0 -0.00356683)
(-0.00359277 8.08861e-05 -0 0.00715831 -0 -0.00356554)
(-0.00359156 5.42861e-05 -0 0.00715546 -0 -0.0035639)
(-0.00359002 2.72402e-05 -0 0.00715193 -0 -0.00356191)
(-0.00358816 -2.72059e-07 -0 0.00714774 -0 -0.00355958)
(-0.00358598 -2.82698e-05 -0 0.00714288 -0 -0.0035569)
(-0.00358347 -5.67715e-05 -0 0.00713735 -0 -0.00355388)
(-0.00358064 -8.57948e-05 -0 0.00713115 -0 -0.00355051)
(-0.00357748 -0.000115357 -0 0.00712428 -0 -0.00354681)
(-0.00357399 -0.000145474 -0 0.00711674 -0 -0.00354276)
(-0.00357017 -0.000176161 -0 0.00710853 -0 -0.00353836)
(-0.00356602 -0.000207434 -0 0.00709964 -0 -0.00353361)
(-0.00356154 -0.000239307 -0 0.00709006 -0 -0.00352852)
(-0.00355672 -0.000271794 -0 0.0070798 -0 -0.00352307)
(-0.00355156 -0.000304908 -0 0.00706884 -0 -0.00351728)
(-0.00354606 -0.000338661 -0 0.00705718 -0 -0.00351112)
(-0.00354021 -0.000373066 -0 0.00704482 -0 -0.00350461)
(-0.00353401 -0.000408134 -0 0.00703175 -0 -0.00349774)
(-0.00352746 -0.000443876 -0 0.00701796 -0 -0.0034905)
(-0.00352055 -0.000480301 -0 0.00700344 -0 -0.00348289)
(-0.00351328 -0.000517418 -0 0.00698819 -0 -0.00347491)
(-0.00350564 -0.000555237 -0 0.0069722 -0 -0.00346656)
(-0.00349763 -0.000593766 -0 0.00695546 -0 -0.00345783)
(-0.00348924 -0.000633011 -0 0.00693796 -0 -0.00344872)
(-0.00348048 -0.000672978 -0 0.0069197 -0 -0.00343922)
(-0.00347133 -0.000713673 -0 0.00690066 -0 -0.00342933)
(-0.00346179 -0.000755101 -0 0.00688084 -0 -0.00341905)
(-0.00345186 -0.000797264 -0 0.00686024 -0 -0.00340837)
(-0.00344153 -0.000840167 -0 0.00683883 -0 -0.0033973)
(-0.0034308 -0.000883809 -0 0.00681661 -0 -0.00338581)
(-0.00341966 -0.000928193 -0 0.00679359 -0 -0.00337392)
(-0.00340811 -0.000973317 -0 0.00676973 -0 -0.00336162)
(-0.00339614 -0.00101918 -0 0.00674505 -0 -0.00334891)
(-0.00338375 -0.00106578 -0 0.00671953 -0 -0.00333578)
(-0.00337094 -0.00111311 -0 0.00669316 -0 -0.00332222)
(-0.00335769 -0.00116117 -0 0.00666594 -0 -0.00330825)
(-0.00334401 -0.00120996 -0 0.00663786 -0 -0.00329384)
(-0.00332989 -0.00125945 -0 0.00660891 -0 -0.00327901)
(-0.00331534 -0.00130965 -0 0.00657908 -0 -0.00326375)
(-0.00330033 -0.00136055 -0 0.00654838 -0 -0.00324805)
(-0.00328488 -0.00141213 -0 0.00651679 -0 -0.00323191)
(-0.00326898 -0.00146438 -0 0.00648432 -0 -0.00321534)
(-0.00325262 -0.0015173 -0 0.00645095 -0 -0.00319833)
(-0.0032358 -0.00157085 -0 0.00641668 -0 -0.00318088)
(-0.00321853 -0.00162503 -0 0.00638151 -0 -0.00316298)
(-0.00320079 -0.00167981 -0 0.00634543 -0 -0.00314465)
(-0.00318259 -0.00173519 -0 0.00630846 -0 -0.00312587)
(-0.00316392 -0.00179113 -0 0.00627057 -0 -0.00310665)
(-0.00314479 -0.00184761 -0 0.00623178 -0 -0.00308699)
(-0.0031252 -0.00190462 -0 0.00619208 -0 -0.00306688)
(-0.00310513 -0.00196213 -0 0.00615147 -0 -0.00304634)
(-0.0030846 -0.0020201 -0 0.00610996 -0 -0.00302536)
(-0.00306361 -0.00207852 -0 0.00606755 -0 -0.00300394)
(-0.00304215 -0.00213735 -0 0.00602424 -0 -0.00298209)
(-0.00302023 -0.00219657 -0 0.00598003 -0 -0.0029598)
(-0.00299784 -0.00225614 -0 0.00593493 -0 -0.00293709)
(-0.002975 -0.00231603 -0 0.00588896 -0 -0.00291395)
(-0.00295171 -0.0023762 -0 0.0058421 -0 -0.0028904)
(-0.00292796 -0.00243663 -0 0.00579438 -0 -0.00286642)
(-0.00290376 -0.00249728 -0 0.0057458 -0 -0.00284204)
(-0.00287912 -0.00255811 -0 0.00569637 -0 -0.00281725)
(-0.00285404 -0.00261909 -0 0.0056461 -0 -0.00279206)
(-0.00282853 -0.00268016 -0 0.00559501 -0 -0.00276648)
(-0.00280259 -0.00274131 -1.54952e-37 0.0055431 -0 -0.00274051)
(-0.00277623 -0.00280248 2.85029e-35 0.00549039 -5.86981e-37 -0.00271416)
(-0.00274946 -0.00286365 -2.8193e-35 0.0054369 5.8698e-37 -0.00268744)
(-0.00272229 -0.00292475 -1.54951e-37 0.00538264 -0 -0.00266035)
(-0.00269471 -0.00298577 -0 0.00532762 -0 -0.00263291)
(-0.00266675 -0.00304665 -0 0.00527187 -0 -0.00260513)
(-0.0026384 -0.00310735 -0 0.0052154 -0 -0.002577)
(-0.00260969 -0.00316784 -0 0.00515824 -0 -0.00254855)
(-0.00258061 -0.00322807 -0 0.00510039 -0 -0.00251978)
(-0.00255119 -0.00328799 -0 0.00504189 -0 -0.0024907)
(-0.00252143 -0.00334757 -0 0.00498276 -0 -0.00246133)
(-0.00249134 -0.00340677 -0 0.00492301 -0 -0.00243167)
(-0.00246093 -0.00346554 -0 0.00486267 -0 -0.00240174)
(-0.00243022 -0.00352384 -0 0.00480177 -0 -0.00237155)
(-0.00239922 -0.00358163 -0 0.00474033 -0 -0.0023411)
(-0.00236794 -0.00363888 -0 0.00467837 -0 -0.00231042)
(-0.0023364 -0.00369554 -0 0.00461592 -0 -0.00227952)
(-0.00230461 -0.00375158 -0 0.00455301 -0 -0.0022484)
(-0.00227258 -0.00380695 -0 0.00448966 -0 -0.00221708)
(-0.00224033 -0.00386162 -0 0.00442591 -0 -0.00218558)
(-0.00220787 -0.00391556 -0 0.00436177 -0 -0.00215391)
(-0.00217521 -0.00396872 -0 0.00429729 -0 -0.00212207)
(-0.00214238 -0.00402108 -0 0.00423248 -0 -0.0020901)
(-0.00210938 -0.00407259 -0 0.00416737 -0 -0.00205799)
(-0.00207623 -0.00412323 -0 0.004102 -0 -0.00202576)
(-0.00204295 -0.00417297 -0 0.00403639 -0 -0.00199343)
(-0.00200956 -0.00422178 -0 0.00397057 -0 -0.00196102)
(-0.00197605 -0.00426962 -0 0.00390458 -0 -0.00192853)
(-0.00194247 -0.00431648 -0 0.00383844 -0 -0.00189597)
(-0.00190881 -0.00436232 -0 0.00377218 -0 -0.00186338)
(-0.00187509 -0.00440711 -0 0.00370583 -0 -0.00183074)
(-0.00184133 -0.00445085 -0 0.00363943 -0 -0.0017981)
(-0.00180755 -0.00449349 -0 0.00357299 -0 -0.00176544)
(-0.00177375 -0.00453503 -0 0.00350655 -0 -0.0017328)
(-0.00173996 -0.00457544 -0 0.00344014 -0 -0.00170018)
(-0.00170619 -0.00461471 -0 0.00337379 -0 -0.00166759)
(-0.00167246 -0.00465281 -0 0.00330752 -0 -0.00163506)
(-0.00163878 -0.00468974 -0 0.00324137 -0 -0.00160259)
(-0.00160516 -0.00472547 -0 0.00317536 -0 -0.0015702)
(-0.00157161 -0.00476 -0 0.00310952 -0 -0.0015379)
(-0.00153817 -0.00479332 -0 0.00304387 -0 -0.00150571)
(-0.00150482 -0.00482541 -0 0.00297845 -0 -0.00147362)
(-0.0014716 -0.00485626 -0 0.00291327 -0 -0.00144167)
(-0.00143852 -0.00488587 -0 0.00284838 -0 -0.00140986)
(-0.00140558 -0.00491423 -0 0.00278378 -0 -0.0013782)
(-0.0013728 -0.00494134 -0 0.0027195 -0 -0.0013467)
(-0.00134019 -0.00496719 -0 0.00265558 -0 -0.00131538)
(-0.00130777 -0.00499178 -0 0.00259202 -0 -0.00128425)
(-0.00127555 -0.00501511 -0 0.00252886 -0 -0.00125332)
(-0.00124353 -0.00503717 -0 0.00246612 -0 -0.00122259)
(-0.00121174 -0.00505797 -0 0.00240382 -0 -0.00119208)
(-0.00118018 -0.00507751 -0 0.00234198 -0 -0.0011618)
(-0.00114886 -0.00509579 -0 0.00228063 -0 -0.00113177)
(-0.00111779 -0.00511282 -0 0.00221977 -0 -0.00110197)
(-0.00108699 -0.00512859 -0 0.00215943 -0 -0.00107244)
(-0.00105646 -0.00514313 -0 0.00209963 -0 -0.00104317)
(-0.00102621 -0.00515642 -0 0.00204039 -0 -0.00101418)
(-0.000996257 -0.00516848 -0 0.00198173 -0 -0.000985472)
(-0.000966601 -0.00517931 -0 0.00192366 -0 -0.000957055)
(-0.000937254 -0.00518893 -0 0.00186619 -0 -0.000928936)
(-0.000908223 -0.00519735 -0 0.00180935 -0 -0.000901124)
(-0.000879517 -0.00520457 -0 0.00175314 -0 -0.000873626)
(-0.000851143 -0.0052106 -0 0.00169759 -0 -0.000846447)
(-0.000823108 -0.00521545 -0 0.0016427 -0 -0.000819595)
(-0.000795418 -0.00521915 -0 0.0015885 -0 -0.000793077)
(-0.000768081 -0.00522169 -0 0.00153498 -0 -0.000766897)
(-0.000741102 -0.0052231 -0 0.00148216 -0 -0.000741061)
(-0.000714487 -0.00522338 -0 0.00143006 -0 -0.000715575)
(-0.000688242 -0.00522255 -0 0.00137868 -0 -0.000690443)
(-0.000662371 -0.00522063 -0 0.00132804 -0 -0.000665671)
(-0.00063688 -0.00521763 -0 0.00127814 -0 -0.000641262)
(-0.000611773 -0.00521356 -0 0.00122899 -0 -0.000617222)
(-0.000587054 -0.00520844 -0 0.00118061 -0 -0.000593553)
(-0.000562727 -0.00520229 -0 0.00113299 -0 -0.000570259)
(-0.000538796 -0.00519512 -0 0.00108614 -0 -0.000547343)
(-0.000515264 -0.00518695 -0 0.00104007 -0 -0.00052481)
(-0.000492135 -0.0051778 -0 0.000994795 -0 -0.00050266)
(-0.00046941 -0.00516768 -0 0.000950308 -0 -0.000480897)
(-0.000447093 -0.00515662 -0 0.000906617 -0 -0.000459524)
(-0.000425186 -0.00514463 -0 0.000863727 -0 -0.000438541)
(-0.000403691 -0.00513172 -0 0.000821641 -0 -0.000417951)
(-0.000382608 -0.00511792 -0 0.000780363 -0 -0.000397754)
(-0.000361941 -0.00510325 -0 0.000739895 -0 -0.000377954)
(-0.00034169 -0.00508772 -0 0.000700238 -0 -0.000358549)
(-0.000321855 -0.00507136 -0 0.000661396 -0 -0.000339541)
(-0.000302438 -0.00505418 -0 0.000623368 -0 -0.000320931)
(-0.000283439 -0.00503621 -0 0.000586156 -0 -0.000302718)
(-0.000264858 -0.00501746 -0 0.00054976 -0 -0.000284902)
(-0.000246694 -0.00499795 -0 0.000514179 -0 -0.000267484)
(-0.000228949 -0.00497771 -0 0.000479412 -0 -0.000250463)
(-0.00021162 -0.00495675 -0 0.000445458 -0 -0.000233838)
(-0.000194708 -0.0049351 -0 0.000412316 -0 -0.000217608)
(-0.000178211 -0.00491277 -0 0.000379983 -0 -0.000201772)
(-0.000162128 -0.00488979 -0 0.000348457 -0 -0.000186329)
(-0.000146457 -0.00486617 -0 0.000317735 -0 -0.000171277)
(-0.000131198 -0.00484194 -0 0.000287812 -0 -0.000156615)
(-0.000116347 -0.00481712 -0 0.000258686 -0 -0.000142339)
(-0.000101902 -0.00479173 -0 0.000230351 -0 -0.000128449)
(-8.78622e-05 -0.00476579 -0 0.000202804 -0 -0.000114942)
(-7.4224e-05 -0.00473933 -0 0.000176039 -0 -0.000101815)
(-6.09848e-05 -0.00471235 -0 0.00015005 -0 -8.9065e-05)
(-4.81417e-05 -0.00468489 -0 0.000124831 -0 -7.66898e-05)
(-3.56914e-05 -0.00465697 -0 0.000100377 -0 -6.46859e-05)
(-2.36306e-05 -0.0046286 -0 7.66808e-05 -0 -5.30501e-05)
(-1.19559e-05 -0.00459981 -0 5.37348e-05 -0 -4.17789e-05)
(-6.63376e-07 -0.00457062 -0 3.1532e-05 -0 -3.08687e-05)
(1.02508e-05 -0.00454105 -0 1.00648e-05 -0 -2.03155e-05)
(2.07906e-05 -0.00451112 -0 -1.0675e-05 -0 -1.01156e-05)
(3.09604e-05 -0.00448085 -0 -3.06957e-05 -0 -2.64698e-07)
(4.07646e-05 -0.00445027 -0 -5.00059e-05 -0 9.24135e-06)
(5.02077e-05 -0.00441938 -0 -6.86146e-05 -0 1.84069e-05)
(5.92945e-05 -0.00438822 -0 -8.65311e-05 -0 2.72366e-05)
(6.80298e-05 -0.0043568 -0 -0.000103765 -0 3.57351e-05)
(7.64186e-05 -0.00432514 -0 -0.000120326 -0 4.3907e-05)
(8.44661e-05 -0.00429326 -0 -0.000136223 -0 5.17573e-05)
(9.21775e-05 -0.00426119 -0 -0.000151469 -0 5.92911e-05)
(9.95582e-05 -0.00422893 -0 -0.000166072 -0 6.65133e-05)
(0.000106614 -0.00419652 -0 -0.000180043 -0 7.34293e-05)
(0.00011335 -0.00416396 -0 -0.000193394 -0 8.00442e-05)
(0.000119772 -0.00413128 -0 -0.000206135 -0 8.63635e-05)
(0.000125885 -0.00409849 -0 -0.000218278 -0 9.23925e-05)
(0.000131697 -0.00406562 -0 -0.000229834 -0 9.81368e-05)
(0.000137212 -0.00403267 -0 -0.000240814 -0 0.000103602)
(0.000142437 -0.00399967 -0 -0.000251231 -0 0.000108794)
(0.000147378 -0.00396663 -0 -0.000261095 -0 0.000113717)
(0.000152041 -0.00393358 -0 -0.00027042 -0 0.000118379)
(0.000156431 -0.00390051 -0 -0.000279216 -0 0.000122784)
(0.000160557 -0.00386745 -0 -0.000287495 -0 0.000126939)
(0.000164422 -0.00383442 -0 -0.000295271 -0 0.000130849)
(0.000168035 -0.00380143 -0 -0.000302554 -0 0.000134519)
(0.0001714 -0.00376848 -0 -0.000309357 -0 0.000137957)
(0.000174525 -0.00373561 -0 -0.000315692 -0 0.000141166)
(0.000177416 -0.00370281 -0 -0.00032157 -0 0.000144155)
(0.000180078 -0.0036701 -0 -0.000327005 -0 0.000146927)
(0.000182519 -0.0036375 -0 -0.000332008 -0 0.000149489)
(0.000184744 -0.00360501 -0 -0.000336591 -0 0.000151847)
(0.00018676 -0.00357264 -0 -0.000340766 -0 0.000154006)
(0.000188573 -0.00354041 -0 -0.000344545 -0 0.000155972)
(0.000190189 -0.00350833 -0 -0.00034794 -0 0.000157751)
(0.000191613 -0.0034764 -0 -0.000350961 -0 0.000159348)
(0.000192853 -0.00344464 -0 -0.000353621 -0 0.000160768)
(0.000193914 -0.00341305 -0 -0.000355932 -0 0.000162017)
(0.000194802 -0.00338164 -0 -0.000357903 -0 0.000163101)
(0.000195523 -0.00335041 -0 -0.000359548 -0 0.000164025)
(0.000196082 -0.00331938 -0 -0.000360875 -0 0.000164793)
(0.000196486 -0.00328856 -0 -0.000361897 -0 0.000165412)
(0.000196739 -0.00325793 -0 -0.000362624 -0 0.000165885)
(0.000196847 -0.00322752 -0 -0.000363067 -0 0.000166219)
(0.000196817 -0.00319733 -0 -0.000363235 -0 0.000166418)
(0.000196652 -0.00316736 -0 -0.000363138 -0 0.000166486)
(0.000196358 -0.00313761 -0 -0.000362787 -0 0.000166429)
(0.000195941 -0.00310809 -0 -0.000362192 -0 0.00016625)
(0.000195405 -0.0030788 -0 -0.00036136 -0 0.000165955)
(0.000194755 -0.00304974 -0 -0.000360303 -0 0.000165548)
(0.000193996 -0.00302091 -0 -0.000359028 -0 0.000165032)
(0.000193132 -0.00299232 -0 -0.000357544 -0 0.000164412)
(0.000192168 -0.00296397 -0 -0.00035586 -0 0.000163692)
(0.000191108 -0.00293585 -0 -0.000353984 -0 0.000162876)
(0.000189957 -0.00290796 -0 -0.000351923 -0 0.000161966)
(0.000188718 -0.00288031 -0 -0.000349686 -0 0.000160968)
(0.000187396 -0.00285289 -0 -0.000347279 -0 0.000159883)
(0.000185994 -0.0028257 -0 -0.00034471 -0 0.000158716)
(0.000184517 -0.00279873 -0 -0.000341986 -0 0.000157469)
(0.000182966 -0.00277199 -0 -0.000339112 -0 0.000156146)
(0.000181347 -0.00274546 -0 -0.000336095 -0 0.000154748)
(0.000179662 -0.00271915 -0 -0.000332941 -0 0.000153279)
(0.000177914 -0.00269304 -0 -0.000329655 -0 0.00015174)
(0.000176107 -0.00266714 -0 -0.000326242 -0 0.000150135)
(0.000174243 -0.00264143 -0 -0.000322707 -0 0.000148464)
(0.000172325 -0.0026159 -0 -0.000319055 -0 0.000146731)
(0.000170355 -0.00259055 -0 -0.00031529 -0 0.000144935)
(0.000168336 -0.00256537 -0 -0.000311415 -0 0.000143079)
(0.00016627 -0.00254034 -0 -0.000307434 -0 0.000141164)
(0.000164159 -0.00251545 -0 -0.00030335 -0 0.00013919)
(0.000162006 -0.00249069 -0 -0.000299165 -0 0.000137159)
(0.000159812 -0.00246605 -0 -0.000294881 -0 0.000135069)
(0.000157579 -0.0024415 -0 -0.000290501 -0 0.000132922)
(0.000155309 -0.00241702 -0 -0.000286026 -0 0.000130717)
(0.000153004 -0.0023926 -0 -0.000281456 -0 0.000128452)
(0.000150666 -0.00236821 -0 -0.000276793 -0 0.000126127)
(0.000148296 -0.00234383 -0 -0.000272036 -0 0.000123741)
(0.000145896 -0.00231941 -0 -0.000267186 -0 0.00012129)
(0.00014347 -0.00229494 -0 -0.000262241 -0 0.000118772)
(0.000141019 -0.00227036 -0 -0.000257202 -0 0.000116184)
(0.000138547 -0.00224562 -0 -0.000252068 -0 0.000113521)
(0.000136058 -0.00222068 -0 -0.000246836 -0 0.000110778)
(0.000133559 -0.00219547 -0 -0.000241508 -0 0.00010795)
(0.000131057 -0.00216991 -0 -0.000236084 -0 0.000105027)
(0.000128562 -0.0021439 -0 -0.000230563 -0 0.000102001)
(0.000126091 -0.00211734 -0 -0.000224951 -0 9.88601e-05)
(0.000123665 -0.00209007 -0 -0.000219254 -0 9.55899e-05)
(0.000121315 -0.00206192 -0 -0.000213486 -0 9.21716e-05)
(0.000119089 -0.00203265 -0 -0.00020767 -0 8.85813e-05)
(0.00011706 -0.00200197 -0 -0.000201846 -0 8.47863e-05)
(0.000115344 -0.00196947 -0 -0.000196085 -0 8.07409e-05)
(0.000114139 -0.00193461 -0 -0.000190515 -0 7.63756e-05)
(0.000113777 -0.00189659 -0 -0.00018536 -0 7.15832e-05)
(0.000114751 -0.0018543 -0 -0.000180979 -0 6.62276e-05)
(0.000118031 -0.00180631 -0 -0.000178042 -0 6.00114e-05)
(0.000128492 -0.0017512 -0 -0.000179432 -0 5.09396e-05)
(0.000152918 -0.00168312 -0 -0.000190225 -0 3.73077e-05)
(0.000124789 -0.0015933 -0 -0.000179626 -0 5.48376e-05)
(0.00125597 0.00251586 -0 -0.0014892 -0 0.000233236)
(0.00137212 0.00103245 -0 -0.00173138 -0 0.000359259)
(0.000895018 0.000566362 -0 -0.00137588 -0 0.000480864)
(0.000638904 0.00051259 -0 -0.00115595 -0 0.000517045)
(0.000525908 0.000534629 -0 -0.00105819 -0 0.000532284)
(0.000478155 0.000561382 -0 -0.00102147 -0 0.000543315)
(0.000462424 0.000579253 -0 -0.00101368 -0 0.000551253)
(0.000461577 0.000586756 -0 -0.00101863 -0 0.000557049)
(0.000466718 0.000586082 -0 -0.00102832 -0 0.000561604)
(0.000473817 0.000579757 -0 -0.00103917 -0 0.000565357)
(0.000481143 0.000569701 -0 -0.00104967 -0 0.000568528)
(0.00048798 0.000557214 -0 -0.00105924 -0 0.000571259)
(0.000494075 0.000543143 -0 -0.00106772 -0 0.000573642)
(0.00049938 0.000528025 -0 -0.00107512 -0 0.000575742)
(0.000503936 0.000512198 -0 -0.00108154 -0 0.000577607)
(0.000507812 0.000495875 -0 -0.00108708 -0 0.00057927)
(0.000511086 0.000479182 -0 -0.00109184 -0 0.000580758)
(0.000513829 0.000462197 -0 -0.00109592 -0 0.000582093)
(0.000516106 0.000444962 -0 -0.0010994 -0 0.000583292)
(0.000517973 0.000427498 -0 -0.00110234 -0 0.000584367)
(0.000519477 0.000409812 -0 -0.00110481 -0 0.00058533)
(0.000520658 0.000391903 -0 -0.00110685 -0 0.00058619)
(0.00052155 0.000373763 -0 -0.0011085 -0 0.000586954)
(0.000522182 0.000355379 -0 -0.00110981 -0 0.00058763)
(0.000522577 0.00033674 -0 -0.0011108 -0 0.000588221)
(0.000522757 0.000317829 -0 -0.00111149 -0 0.000588733)
(0.000522738 0.00029863 -0 -0.00111191 -0 0.00058917)
(0.000522534 0.000279129 -0 -0.00111207 -0 0.000589535)
(0.000522159 0.000259307 -0 -0.00111199 -0 0.00058983)
(0.000521623 0.00023915 -0 -0.00111168 -0 0.000590059)
(0.000520934 0.000218641 -0 -0.00111116 -0 0.000590222)
(0.000520101 0.000197764 -0 -0.00111042 -0 0.000590322)
(0.000519131 0.000176503 -0 -0.00110949 -0 0.00059036)
(0.000518028 0.000154844 -0 -0.00110837 -0 0.000590337)
(0.000516799 0.00013277 -0 -0.00110705 -0 0.000590255)
(0.000515446 0.000110268 -0 -0.00110556 -0 0.000590114)
(0.000513975 8.7323e-05 -0 -0.00110389 -0 0.000589915)
(0.000512388 6.392e-05 -0 -0.00110205 -0 0.000589658)
(0.000510689 4.00455e-05 -0 -0.00110003 -0 0.000589344)
(0.000508879 1.56857e-05 -0 -0.00109785 -0 0.000588974)
(0.00050696 -9.17307e-06 -0 -0.00109551 -0 0.000588546)
(0.000504936 -3.45439e-05 -0 -0.001093 -0 0.000588062)
(0.000502807 -6.04399e-05 -0 -0.00109033 -0 0.000587521)
(0.000500576 -8.68737e-05 -0 -0.0010875 -0 0.000586924)
(0.000498244 -0.000113858 -0 -0.00108451 -0 0.00058627)
(0.000495812 -0.000141404 -0 -0.00108137 -0 0.000585559)
(0.000493281 -0.000169525 -0 -0.00107807 -0 0.000584791)
(0.000490653 -0.000198232 -0 -0.00107462 -0 0.000583965)
(0.000487929 -0.000227536 -0 -0.00107101 -0 0.000583081)
(0.000485111 -0.000257447 -0 -0.00106725 -0 0.000582139)
(0.000482199 -0.000287977 -0 -0.00106334 -0 0.000581139)
(0.000479194 -0.000319136 -0 -0.00105927 -0 0.000580079)
(0.000476099 -0.000350932 -0 -0.00105506 -0 0.00057896)
(0.000472913 -0.000383376 -0 -0.00105069 -0 0.00057778)
(0.000469639 -0.000416476 -0 -0.00104618 -0 0.00057654)
(0.000466278 -0.00045024 -0 -0.00104152 -0 0.000575239)
(0.000462832 -0.000484676 -0 -0.00103671 -0 0.000573876)
(0.000459301 -0.000519791 -0 -0.00103175 -0 0.00057245)
(0.000455687 -0.000555591 -0 -0.00102665 -0 0.000570961)
(0.000451993 -0.000592082 -0 -0.0010214 -0 0.000569409)
(0.00044822 -0.00062927 -0 -0.00101601 -0 0.000567792)
(0.00044437 -0.000667158 -0 -0.00101048 -0 0.000566111)
(0.000440445 -0.00070575 -0 -0.00100481 -0 0.000564364)
(0.000436446 -0.00074505 -0 -0.000998997 -0 0.00056255)
(0.000432377 -0.000785059 -0 -0.000993048 -0 0.00056067)
(0.00042824 -0.000825778 -0 -0.000986963 -0 0.000558723)
(0.000424036 -0.000867207 -0 -0.000980744 -0 0.000556708)
(0.000419769 -0.000909347 -0 -0.000974393 -0 0.000554624)
(0.000415442 -0.000952195 -0 -0.000967913 -0 0.000552471)
(0.000411056 -0.000995749 -0 -0.000961304 -0 0.000550248)
(0.000406616 -0.00104 -0 -0.000954571 -0 0.000547955)
(0.000402123 -0.00108496 -0 -0.000947715 -0 0.000545592)
(0.000397582 -0.0011306 -0 -0.00094074 -0 0.000543157)
(0.000392996 -0.00117693 -0 -0.000933647 -0 0.000540651)
(0.000388367 -0.00122393 -0 -0.00092644 -0 0.000538073)
(0.000383699 -0.00127161 -0 -0.000919122 -0 0.000535423)
(0.000378997 -0.00131993 -0 -0.000911697 -0 0.0005327)
(0.000374263 -0.00136891 -0 -0.000904167 -0 0.000529904)
(0.000369501 -0.00141851 -0 -0.000896536 -0 0.000527035)
(0.000364715 -0.00146874 -0 -0.000888808 -0 0.000524093)
(0.000359909 -0.00151956 -0 -0.000880986 -0 0.000521077)
(0.000355087 -0.00157097 -0 -0.000873075 -0 0.000517988)
(0.000350253 -0.00162295 -0 -0.000865078 -0 0.000514825)
(0.000345411 -0.00167548 -0 -0.000856999 -0 0.000511589)
(0.000340564 -0.00172853 -0 -0.000848843 -0 0.000508279)
(0.000335717 -0.0017821 -0 -0.000840614 -0 0.000504896)
(0.000330874 -0.00183614 -0 -0.000832315 -0 0.000501441)
(0.000326039 -0.00189065 -0 -0.000823952 -0 0.000497912)
(0.000321216 -0.00194559 -0 -0.000815528 -0 0.000494312)
(0.000316409 -0.00200094 -0 -0.000807048 -0 0.000490639)
(0.000311622 -0.00205667 -0 -0.000798517 -0 0.000486895)
(0.000306858 -0.00211275 -0 -0.000789939 -0 0.00048308)
(0.000302122 -0.00216916 -0 -0.000781318 -0 0.000479195)
(0.000297418 -0.00222586 -0 -0.000772659 -0 0.000475241)
(0.000292748 -0.00228281 -0 -0.000763966 -0 0.000471218)
(0.000288117 -0.00234 -0 -0.000755244 -0 0.000467128)
(0.000283528 -0.00239738 -0 -0.000746498 -0 0.00046297)
(0.000278984 -0.00245492 -0 -0.000737731 -0 0.000458747)
(0.000274489 -0.00251258 -0 -0.000728948 -0 0.000454459)
(0.000270045 -0.00257034 -0 -0.000720153 1.54952e-37 0.000450107)
(0.000265656 -0.00262814 -0 -0.00071135 -1.54951e-37 0.000445694)
(0.000261324 -0.00268597 -0 -0.000702543 -0 0.000441219)
(0.000257052 -0.00274377 -0 -0.000693737 -0 0.000436685)
(0.000252843 -0.00280152 -0 -0.000684935 -0 0.000432092)
(0.000248697 -0.00285916 -0 -0.000676141 -0 0.000427443)
(0.000244619 -0.00291668 -0 -0.000667358 -0 0.00042274)
(0.000240609 -0.00297402 -0 -0.000658591 -0 0.000417982)
(0.000236669 -0.00303115 -0 -0.000649842 -0 0.000413174)
(0.000232801 -0.00308803 -0 -0.000641116 -0 0.000408315)
(0.000229006 -0.00314462 -0 -0.000632414 -0 0.000403408)
(0.000225285 -0.00320088 -0 -0.000623741 -0 0.000398456)
(0.000221639 -0.00325678 -0 -0.000615098 -0 0.000393459)
(0.00021807 -0.00331228 -0 -0.00060649 -0 0.00038842)
(0.000214576 -0.00336733 -0 -0.000597917 -0 0.000383341)
(0.00021116 -0.00342191 -0 -0.000589384 -0 0.000378224)
(0.000207821 -0.00347598 -0 -0.000580892 -0 0.000373071)
(0.000204559 -0.00352949 -0 -0.000572444 -0 0.000367885)
(0.000201374 -0.00358242 -0 -0.000564041 -0 0.000362667)
(0.000198267 -0.00363473 -0 -0.000555687 -0 0.00035742)
(0.000195235 -0.00368638 -0 -0.000547381 -0 0.000352146)
(0.00019228 -0.00373735 -0 -0.000539127 -0 0.000346847)
(0.000189399 -0.0037876 -0 -0.000530926 -0 0.000341526)
(0.000186593 -0.00383709 -0 -0.000522779 -0 0.000336185)
(0.000183861 -0.00388581 -0 -0.000514688 -0 0.000330827)
(0.000181201 -0.00393371 -0 -0.000506654 -0 0.000325453)
(0.000178612 -0.00398078 -0 -0.000498678 -0 0.000320066)
(0.000176093 -0.00402698 -0 -0.000490761 -0 0.000314668)
(0.000173643 -0.00407228 -0 -0.000482906 -0 0.000309262)
(0.00017126 -0.00411667 -0 -0.000475111 -0 0.000303851)
(0.000168943 -0.00416012 -0 -0.000467379 -0 0.000298436)
(0.00016669 -0.0042026 -0 -0.000459709 -0 0.000293019)
(0.0001645 -0.0042441 -0 -0.000452104 -0 0.000287604)
(0.000162371 -0.00428459 -0 -0.000444563 -0 0.000282192)
(0.000160301 -0.00432406 -0 -0.000437087 -0 0.000276786)
(0.00015829 -0.00436248 -0 -0.000429677 -0 0.000271388)
(0.000156334 -0.00439985 -0 -0.000422334 -0 0.000266)
(0.000154433 -0.00443614 -0 -0.000415057 -0 0.000260624)
(0.000152584 -0.00447134 -0 -0.000407847 -0 0.000255263)
(0.000150786 -0.00450543 -0 -0.000400706 -0 0.000249919)
(0.000149038 -0.00453842 -0 -0.000393632 -0 0.000244594)
(0.000147338 -0.00457028 -0 -0.000386628 -0 0.00023929)
(0.000145683 -0.004601 -0 -0.000379692 -0 0.000234009)
(0.000144074 -0.00463058 -0 -0.000372826 -0 0.000228752)
(0.000142507 -0.00465901 -0 -0.00036603 -0 0.000223523)
(0.000140981 -0.00468629 -0 -0.000359304 -0 0.000218323)
(0.000139496 -0.0047124 -0 -0.000352649 -0 0.000213153)
(0.000138049 -0.00473735 -0 -0.000346065 -0 0.000208016)
(0.000136639 -0.00476114 -0 -0.000339553 -0 0.000202914)
(0.000135264 -0.00478375 -0 -0.000333112 -0 0.000197847)
(0.000133925 -0.00480519 -0 -0.000326743 -0 0.000192819)
(0.000132618 -0.00482546 -0 -0.000320448 -0 0.00018783)
(0.000131343 -0.00484456 -0 -0.000314225 -0 0.000182882)
(0.000130099 -0.00486249 -0 -0.000308075 -0 0.000177976)
(0.000128885 -0.00487926 -0 -0.000301999 -0 0.000173115)
(0.000127699 -0.00489487 -0 -0.000295997 -0 0.000168299)
(0.00012654 -0.00490932 -0 -0.00029007 -0 0.00016353)
(0.000125409 -0.00492262 -0 -0.000284217 -0 0.000158809)
(0.000124303 -0.00493477 -0 -0.00027844 -0 0.000154137)
(0.000123221 -0.00494578 -0 -0.000272738 -0 0.000149517)
(0.000122164 -0.00495566 -0 -0.000267112 -0 0.000144948)
(0.000121129 -0.00496441 -0 -0.000261562 -0 0.000140433)
(0.000120117 -0.00497205 -0 -0.000256088 -0 0.000135971)
(0.000119126 -0.00497859 -0 -0.000250691 -0 0.000131565)
(0.000118157 -0.00498402 -0 -0.000245372 -0 0.000127215)
(0.000117207 -0.00498837 -0 -0.000240129 -0 0.000122922)
(0.000116277 -0.00499165 -0 -0.000234964 -0 0.000118687)
(0.000115365 -0.00499386 -0 -0.000229876 -0 0.000114511)
(0.000114472 -0.00499502 -0 -0.000224867 -0 0.000110394)
(0.000113597 -0.00499513 -0 -0.000219935 -0 0.000106338)
(0.000112738 -0.00499423 -0 -0.000215081 -0 0.000102343)
(0.000111896 -0.0049923 -0 -0.000210306 -0 9.84096e-05)
(0.00011107 -0.00498938 -0 -0.000205609 -0 9.45384e-05)
(0.00011026 -0.00498547 -0 -0.00020099 -0 9.073e-05)
(0.000109464 -0.00498059 -0 -0.000196449 -0 8.6985e-05)
(0.000108682 -0.00497475 -0 -0.000191986 -0 8.33037e-05)
(0.000107914 -0.00496797 -0 -0.000187601 -0 7.96866e-05)
(0.00010716 -0.00496027 -0 -0.000183294 -0 7.61341e-05)
(0.000106418 -0.00495165 -0 -0.000179064 -0 7.26465e-05)
(0.000105688 -0.00494214 -0 -0.000174912 -0 6.92241e-05)
(0.00010497 -0.00493175 -0 -0.000170837 -0 6.58671e-05)
(0.000104263 -0.0049205 -0 -0.000166839 -0 6.25758e-05)
(0.000103566 -0.0049084 -0 -0.000162916 -0 5.93502e-05)
(0.00010288 -0.00489548 -0 -0.00015907 -0 5.61906e-05)
(0.000102202 -0.00488174 -0 -0.000155299 -0 5.30969e-05)
(0.000101534 -0.00486721 -0 -0.000151603 -0 5.00693e-05)
(0.000100874 -0.00485191 -0 -0.000147982 -0 4.71077e-05)
(0.000100221 -0.00483585 -0 -0.000144434 -0 4.42122e-05)
(9.95762e-05 -0.00481905 -0 -0.000140959 -0 4.13825e-05)
(9.89374e-05 -0.00480154 -0 -0.000137556 -0 3.86187e-05)
(9.83047e-05 -0.00478331 -0 -0.000134225 -0 3.59205e-05)
(9.76774e-05 -0.00476441 -0 -0.000130965 -0 3.32878e-05)
(9.70549e-05 -0.00474484 -0 -0.000127775 -0 3.07203e-05)
(9.64367e-05 -0.00472463 -0 -0.000124655 -0 2.82178e-05)
(9.58222e-05 -0.00470379 -0 -0.000121602 -0 2.578e-05)
(9.52108e-05 -0.00468234 -0 -0.000118617 -0 2.34066e-05)
(9.46019e-05 -0.00466031 -0 -0.000115699 -0 2.10972e-05)
(9.3995e-05 -0.0046377 -0 -0.000112847 -0 1.88515e-05)
(9.33897e-05 -0.00461455 -0 -0.000110059 -0 1.66689e-05)
(9.27852e-05 -0.00459087 -0 -0.000107334 -0 1.4549e-05)
(9.21812e-05 -0.00456668 -0 -0.000104673 -0 1.24915e-05)
(9.15772e-05 -0.00454199 -0 -0.000102073 -0 1.04956e-05)
(9.09726e-05 -0.00451684 -0 -9.95336e-05 -0 8.56097e-06)
(9.0367e-05 -0.00449124 -0 -9.70539e-05 -0 6.68694e-06)
(8.976e-05 -0.0044652 -0 -9.46329e-05 -0 4.87293e-06)
(8.91511e-05 -0.00443875 -0 -9.22694e-05 -0 3.11829e-06)
(8.854e-05 -0.00441191 -0 -8.99624e-05 -0 1.42239e-06)
(8.79264e-05 -0.0043847 -0 -8.77109e-05 -0 -2.15463e-07)
(8.73098e-05 -0.00435713 -0 -8.55138e-05 -0 -1.79596e-06)
(8.669e-05 -0.00432923 -0 -8.33702e-05 -0 -3.31984e-06)
(8.60668e-05 -0.00430102 -0 -8.12789e-05 -0 -4.78784e-06)
(8.54398e-05 -0.0042725 -0 -7.92391e-05 -0 -6.20074e-06)
(8.4809e-05 -0.00424371 -0 -7.72497e-05 -0 -7.55934e-06)
(8.41741e-05 -0.00421466 -0 -7.53097e-05 -0 -8.86443e-06)
(8.3535e-05 -0.00418537 -0 -7.34181e-05 -0 -1.01169e-05)
(8.28915e-05 -0.00415586 -0 -7.1574e-05 -0 -1.13174e-05)
(8.22437e-05 -0.00412615 -0 -6.97766e-05 -0 -1.24671e-05)
(8.15914e-05 -0.00409624 -0 -6.80248e-05 -0 -1.35666e-05)