/*--------------------------------*- C++ -*----------------------------------*\
| =========                 |                                                 |
| \\      /  F ield         | OpenFOAM: The Open Source CFD Toolbox           |
|  \\    /   O peration     | Version:  2512                                  |
|   \\  /    A nd           | Website:  www.openfoam.com                      |
|    \\/     M anipulation  |                                                 |
\*---------------------------------------------------------------------------*/
FoamFile
{
    version     2.0;
    format      ascii;
    arch        "LSB;label=32;scalar=64";
    class       volVectorField;
    location    "2752";
    object      U;
}
// * * * * * * * * * * * * * * * * * * * * * * * * * * * * * * * * * * * * * //

dimensions      [0 1 -1 0 0 0 0];

internalField   nonuniform List<vector> 
66422
(
(0.299797 -0.00288698 0)
(0.299295 -0.00465429 0)
(0.29923 -0.00517294 0)
(0.299305 -0.0053878 0)
(0.299374 -0.00551761 0)
(0.299431 -0.00560885 0)
(0.299478 -0.00567774 0)
(0.299516 -0.00573237 0)
(0.299549 -0.00577713 0)
(0.299576 -0.00581468 0)
(0.2996 -0.00584674 0)
(0.299621 -0.0058745 0)
(0.29964 -0.00589879 0)
(0.299658 -0.00592022 0)
(0.299674 -0.00593925 0)
(0.29969 -0.00595622 0)
(0.299704 -0.0059714 0)
(0.299718 -0.00598501 0)
(0.299732 -0.00599721 0)
(0.299745 -0.00600815 0)
(0.299758 -0.00601793 0)
(0.29977 -0.00602666 0)
(0.299783 -0.0060344 0)
(0.299795 -0.00604123 0)
(0.299808 -0.0060472 0)
(0.29982 -0.00605235 0)
(0.299832 -0.00605672 0)
(0.299844 -0.00606036 0)
(0.299857 -0.00606327 0)
(0.299869 -0.0060655 0)
(0.299882 -0.00606706 0)
(0.299894 -0.00606797 0)
(0.299907 -0.00606823 0)
(0.29992 -0.00606788 0)
(0.299933 -0.00606691 0)
(0.299947 -0.00606533 0)
(0.29996 -0.00606315 0)
(0.299974 -0.00606038 0)
(0.299988 -0.00605702 0)
(0.300002 -0.00605308 0)
(0.300016 -0.00604855 0)
(0.300031 -0.00604343 0)
(0.300046 -0.00603774 0)
(0.300061 -0.00603146 0)
(0.300077 -0.00602459 0)
(0.300092 -0.00601714 0)
(0.300109 -0.00600909 0)
(0.300125 -0.00600046 0)
(0.300142 -0.00599122 0)
(0.300159 -0.00598139 0)
(0.300176 -0.00597095 0)
(0.300193 -0.0059599 0)
(0.300211 -0.00594824 0)
(0.30023 -0.00593596 0)
(0.300248 -0.00592305 0)
(0.300267 -0.00590951 0)
(0.300287 -0.00589534 0)
(0.300307 -0.00588052 0)
(0.300327 -0.00586505 0)
(0.300347 -0.00584893 0)
(0.300368 -0.00583214 0)
(0.300389 -0.00581469 0)
(0.300411 -0.00579656 0)
(0.300433 -0.00577775 0)
(0.300455 -0.00575826 0)
(0.300478 -0.00573807 0)
(0.300501 -0.00571718 0)
(0.300524 -0.00569559 0)
(0.300548 -0.00567329 0)
(0.300572 -0.00565027 0)
(0.300597 -0.00562653 0)
(0.300621 -0.00560207 0)
(0.300647 -0.00557687 0)
(0.300672 -0.00555094 0)
(0.300698 -0.00552427 0)
(0.300725 -0.00549686 0)
(0.300751 -0.00546871 0)
(0.300778 -0.0054398 0)
(0.300806 -0.00541015 0)
(0.300833 -0.00537975 0)
(0.300861 -0.00534859 0)
(0.300889 -0.00531668 0)
(0.300918 -0.00528402 0)
(0.300947 -0.00525061 0)
(0.300976 -0.00521644 0)
(0.301005 -0.00518153 0)
(0.301034 -0.00514587 0)
(0.301064 -0.00510946 0)
(0.301094 -0.00507232 0)
(0.301124 -0.00503444 0)
(0.301154 -0.00499584 0)
(0.301185 -0.00495651 0)
(0.301216 -0.00491646 0)
(0.301246 -0.00487571 0)
(0.301277 -0.00483426 0)
(0.301308 -0.00479211 0)
(0.301339 -0.00474929 0)
(0.30137 -0.00470579 0)
(0.301401 -0.00466164 0)
(0.301432 -0.00461684 3.09903e-37)
(0.301463 -0.0045714 -3.09901e-37)
(0.301494 -0.00452535 0)
(0.301525 -0.00447869 0)
(0.301556 -0.00443144 0)
(0.301587 -0.00438361 0)
(0.301617 -0.00433523 0)
(0.301648 -0.0042863 0)
(0.301678 -0.00423685 0)
(0.301708 -0.0041869 0)
(0.301738 -0.00413646 0)
(0.301768 -0.00408555 0)
(0.301797 -0.0040342 0)
(0.301827 -0.00398242 0)
(0.301855 -0.00393024 0)
(0.301884 -0.00387767 0)
(0.301912 -0.00382474 0)
(0.30194 -0.00377147 0)
(0.301968 -0.00371789 0)
(0.301995 -0.00366401 0)
(0.302022 -0.00360986 0)
(0.302048 -0.00355546 0)
(0.302074 -0.00350085 0)
(0.3021 -0.00344603 0)
(0.302125 -0.00339103 0)
(0.302149 -0.00333588 0)
(0.302173 -0.00328061 0)
(0.302197 -0.00322523 0)
(0.30222 -0.00316978 0)
(0.302242 -0.00311426 0)
(0.302264 -0.00305872 0)
(0.302285 -0.00300317 0)
(0.302306 -0.00294763 0)
(0.302326 -0.00289213 0)
(0.302346 -0.0028367 0)
(0.302365 -0.00278135 0)
(0.302383 -0.00272611 0)
(0.302401 -0.00267101 0)
(0.302418 -0.00261605 0)
(0.302435 -0.00256127 0)
(0.302451 -0.00250669 0)
(0.302466 -0.00245233 0)
(0.302481 -0.0023982 0)
(0.302495 -0.00234434 0)
(0.302508 -0.00229075 0)
(0.302521 -0.00223747 0)
(0.302533 -0.0021845 0)
(0.302544 -0.00213186 0)
(0.302555 -0.00207959 0)
(0.302565 -0.00202768 0)
(0.302575 -0.00197617 0)
(0.302584 -0.00192506 0)
(0.302592 -0.00187437 0)
(0.302599 -0.00182412 0)
(0.302606 -0.00177433 0)
(0.302613 -0.001725 0)
(0.302618 -0.00167616 0)
(0.302623 -0.00162781 0)
(0.302628 -0.00157997 0)
(0.302632 -0.00153265 0)
(0.302635 -0.00148586 0)
(0.302638 -0.00143962 0)
(0.30264 -0.00139393 0)
(0.302641 -0.00134882 0)
(0.302642 -0.00130427 0)
(0.302642 -0.00126032 0)
(0.302642 -0.00121696 0)
(0.302641 -0.0011742 0)
(0.30264 -0.00113205 0)
(0.302638 -0.00109052 0)
(0.302635 -0.00104962 0)
(0.302632 -0.00100935 0)
(0.302629 -0.000969722 0)
(0.302625 -0.000930735 0)
(0.30262 -0.000892397 0)
(0.302615 -0.000854714 0)
(0.30261 -0.000817688 0)
(0.302604 -0.000781324 0)
(0.302597 -0.000745626 0)
(0.302591 -0.000710596 0)
(0.302583 -0.000676236 0)
(0.302575 -0.000642548 0)
(0.302567 -0.000609535 0)
(0.302559 -0.000577197 0)
(0.30255 -0.000545536 0)
(0.30254 -0.00051455 0)
(0.30253 -0.000484242 0)
(0.30252 -0.000454609 0)
(0.302509 -0.000425651 0)
(0.302499 -0.000397368 0)
(0.302487 -0.000369757 0)
(0.302476 -0.000342817 0)
(0.302464 -0.000316544 0)
(0.302451 -0.000290937 0)
(0.302439 -0.000265993 0)
(0.302426 -0.000241708 0)
(0.302413 -0.000218078 0)
(0.302399 -0.0001951 0)
(0.302386 -0.000172768 0)
(0.302372 -0.000151079 0)
(0.302358 -0.000130027 0)
(0.302343 -0.000109606 0)
(0.302329 -8.98126e-05 0)
(0.302314 -7.06391e-05 0)
(0.302299 -5.20797e-05 0)
(0.302284 -3.41281e-05 0)
(0.302268 -1.67774e-05 0)
(0.302253 -2.06447e-08 0)
(0.302237 1.61493e-05 0)
(0.302221 3.17399e-05 0)
(0.302205 4.6759e-05 0)
(0.302189 6.12144e-05 0)
(0.302173 7.51142e-05 0)
(0.302157 8.84668e-05 0)
(0.30214 0.000101281 0)
(0.302124 0.000113564 0)
(0.302107 0.000125327 0)
(0.302091 0.000136577 0)
(0.302074 0.000147325 0)
(0.302057 0.000157578 0)
(0.30204 0.000167347 0)
(0.302024 0.000176641 0)
(0.302007 0.00018547 0)
(0.30199 0.000193843 0)
(0.301973 0.00020177 0)
(0.301956 0.00020926 0)
(0.30194 0.000216325 0)
(0.301923 0.000222972 0)
(0.301906 0.000229213 0)
(0.301889 0.000235057 0)
(0.301873 0.000240514 0)
(0.301856 0.000245593 0)
(0.301839 0.000250306 0)
(0.301823 0.000254661 0)
(0.301806 0.000258668 0)
(0.30179 0.000262337 0)
(0.301773 0.000265678 0)
(0.301757 0.0002687 0)
(0.301741 0.000271412 0)
(0.301725 0.000273825 0)
(0.301709 0.000275946 0)
(0.301693 0.000277786 0)
(0.301677 0.000279354 0)
(0.301662 0.000280657 0)
(0.301646 0.000281706 0)
(0.30163 0.000282508 0)
(0.301615 0.000283072 0)
(0.3016 0.000283407 0)
(0.301585 0.00028352 0)
(0.30157 0.000283419 0)
(0.301555 0.000283112 0)
(0.30154 0.000282607 0)
(0.301525 0.000281911 0)
(0.301511 0.000281031 0)
(0.301496 0.000279974 0)
(0.301482 0.000278746 0)
(0.301468 0.000277355 0)
(0.301454 0.000275806 0)
(0.30144 0.000274105 0)
(0.301426 0.000272258 0)
(0.301412 0.000270271 0)
(0.301399 0.000268149 0)
(0.301385 0.000265896 0)
(0.301372 0.000263517 0)
(0.301359 0.000261017 0)
(0.301346 0.000258399 0)
(0.301333 0.000255668 0)
(0.30132 0.000252827 0)
(0.301307 0.000249878 0)
(0.301294 0.000246825 0)
(0.301281 0.000243669 0)
(0.301269 0.000240413 0)
(0.301256 0.000237057 0)
(0.301244 0.000233604 0)
(0.301231 0.000230053 0)
(0.301219 0.000226404 0)
(0.301207 0.000222657 0)
(0.301194 0.00021881 0)
(0.301182 0.000214861 0)
(0.30117 0.000210809 0)
(0.301158 0.000206648 0)
(0.301145 0.000202375 0)
(0.301133 0.000197983 0)
(0.30112 0.000193466 0)
(0.301108 0.000188816 0)
(0.301095 0.000184021 0)
(0.301082 0.00017907 0)
(0.301069 0.000173947 0)
(0.301056 0.000168634 0)
(0.301042 0.000163106 0)
(0.301028 0.000157337 0)
(0.301013 0.000151288 0)
(0.300997 0.000144911 0)
(0.300981 0.000138143 0)
(0.300963 0.000130896 0)
(0.300943 0.000123045 0)
(0.30092 0.00011441 0)
(0.300894 0.000104685 0)
(0.300862 9.34766e-05 0)
(0.300817 8.18635e-05 0)
(0.300747 7.50412e-05 0)
(0.29984 -0.00179679 0)
(0.299137 -0.00334261 0)
(0.298827 -0.00392495 0)
(0.298723 -0.0041736 0)
(0.298706 -0.00429519 0)
(0.298729 -0.00436343 0)
(0.298771 -0.00440813 0)
(0.298818 -0.00444135 0)
(0.298866 -0.00446812 0)
(0.298913 -0.00449077 0)
(0.298958 -0.00451046 0)
(0.299 -0.00452787 0)
(0.299041 -0.00454342 0)
(0.29908 -0.00455741 0)
(0.299117 -0.00457004 0)
(0.299154 -0.00458149 0)
(0.299189 -0.00459187 0)
(0.299223 -0.00460129 0)
(0.299257 -0.00460985 0)
(0.29929 -0.0046176 0)
(0.299323 -0.00462461 0)
(0.299356 -0.00463093 0)
(0.299389 -0.00463659 0)
(0.299422 -0.00464164 0)
(0.299454 -0.00464611 0)
(0.299487 -0.00465001 0)
(0.29952 -0.00465338 0)
(0.299554 -0.00465624 0)
(0.299587 -0.00465859 0)
(0.299621 -0.00466045 0)
(0.299656 -0.00466184 0)
(0.299691 -0.00466277 0)
(0.299726 -0.00466324 0)
(0.299762 -0.00466326 0)
(0.299798 -0.00466284 0)
(0.299835 -0.00466199 0)
(0.299873 -0.00466069 0)
(0.299911 -0.00465897 0)
(0.29995 -0.00465682 0)
(0.29999 -0.00465424 0)
(0.30003 -0.00465123 0)
(0.300072 -0.00464779 0)
(0.300114 -0.00464393 0)
(0.300156 -0.00463963 0)
(0.3002 -0.00463491 0)
(0.300244 -0.00462975 0)
(0.30029 -0.00462416 0)
(0.300336 -0.00461812 0)
(0.300383 -0.00461165 0)
(0.300431 -0.00460473 0)
(0.30048 -0.00459736 0)
(0.30053 -0.00458953 0)
(0.300581 -0.00458124 0)
(0.300633 -0.0045725 0)
(0.300686 -0.00456328 0)
(0.30074 -0.00455359 0)
(0.300795 -0.00454342 0)
(0.300851 -0.00453277 0)
(0.300908 -0.00452163 0)
(0.300966 -0.00450999 0)
(0.301025 -0.00449785 0)
(0.301086 -0.0044852 0)
(0.301147 -0.00447205 0)
(0.30121 -0.00445837 0)
(0.301273 -0.00444417 0)
(0.301338 -0.00442944 0)
(0.301404 -0.00441418 0)
(0.30147 -0.00439837 0)
(0.301538 -0.00438202 0)
(0.301607 -0.00436512 0)
(0.301678 -0.00434766 0)
(0.301749 -0.00432963 0)
(0.301821 -0.00431105 0)
(0.301894 -0.00429189 0)
(0.301969 -0.00427216 0)
(0.302044 -0.00425185 0)
(0.30212 -0.00423095 0)
(0.302198 -0.00420947 0)
(0.302276 -0.0041874 0)
(0.302355 -0.00416474 0)
(0.302435 -0.00414149 0)
(0.302517 -0.00411764 0)
(0.302598 -0.0040932 0)
(0.302681 -0.00406816 0)
(0.302765 -0.00404252 0)
(0.302849 -0.00401628 0)
(0.302934 -0.00398945 0)
(0.303019 -0.00396202 0)
(0.303106 -0.003934 0)
(0.303192 -0.00390539 0)
(0.30328 -0.00387619 0)
(0.303368 -0.0038464 0)
(0.303456 -0.00381604 0)
(0.303545 -0.00378509 0)
(0.303634 -0.00375358 0)
(0.303723 -0.00372151 0)
(0.303813 -0.00368888 0)
(0.303903 -0.00365569 0)
(0.303993 -0.00362197 0)
(0.304083 -0.00358772 0)
(0.304173 -0.00355294 0)
(0.304263 -0.00351764 0)
(0.304353 -0.00348185 0)
(0.304442 -0.00344556 0)
(0.304532 -0.00340879 0)
(0.304621 -0.00337156 0)
(0.30471 -0.00333387 0)
(0.304798 -0.00329574 0)
(0.304887 -0.00325719 0)
(0.304974 -0.00321822 0)
(0.305061 -0.00317886 0)
(0.305147 -0.00313912 0)
(0.305233 -0.00309901 0)
(0.305318 -0.00305855 0)
(0.305401 -0.00301777 0)
(0.305485 -0.00297667 0)
(0.305567 -0.00293527 0)
(0.305648 -0.0028936 0)
(0.305728 -0.00285167 0)
(0.305807 -0.0028095 0)
(0.305885 -0.00276711 0)
(0.305962 -0.00272451 0)
(0.306037 -0.00268173 0)
(0.306111 -0.00263879 0)
(0.306184 -0.00259571 0)
(0.306255 -0.0025525 0)
(0.306325 -0.00250918 0)
(0.306394 -0.00246578 0)
(0.306461 -0.00242231 0)
(0.306527 -0.0023788 0)
(0.306591 -0.00233526 0)
(0.306653 -0.00229172 0)
(0.306714 -0.00224819 0)
(0.306773 -0.00220468 0)
(0.30683 -0.00216123 0)
(0.306886 -0.00211785 0)
(0.30694 -0.00207456 0)
(0.306992 -0.00203137 0)
(0.307043 -0.0019883 0)
(0.307091 -0.00194538 0)
(0.307138 -0.00190262 0)
(0.307183 -0.00186003 0)
(0.307226 -0.00181764 0)
(0.307268 -0.00177545 0)
(0.307307 -0.0017335 0)
(0.307345 -0.00169178 0)
(0.307381 -0.00165032 0)
(0.307415 -0.00160913 0)
(0.307447 -0.00156823 0)
(0.307478 -0.00152762 0)
(0.307506 -0.00148733 0)
(0.307533 -0.00144737 0)
(0.307558 -0.00140775 0)
(0.307581 -0.00136848 0)
(0.307602 -0.00132958 0)
(0.307621 -0.00129105 0)
(0.307639 -0.00125291 0)
(0.307655 -0.00121516 0)
(0.307669 -0.00117783 0)
(0.307681 -0.00114091 0)
(0.307692 -0.00110442 0)
(0.3077 -0.00106836 0)
(0.307707 -0.00103276 0)
(0.307713 -0.000997601 0)
(0.307717 -0.000962907 0)
(0.307719 -0.000928681 0)
(0.307719 -0.00089493 0)
(0.307718 -0.000861661 0)
(0.307715 -0.000828881 0)
(0.30771 -0.000796594 0)
(0.307704 -0.000764806 0)
(0.307697 -0.000733523 0)
(0.307688 -0.000702748 0)
(0.307677 -0.000672486 0)
(0.307665 -0.000642741 0)
(0.307652 -0.000613517 0)
(0.307637 -0.000584816 0)
(0.307621 -0.000556642 0)
(0.307603 -0.000528996 0)
(0.307585 -0.000501882 0)
(0.307564 -0.0004753 0)
(0.307543 -0.000449252 0)
(0.30752 -0.00042374 0)
(0.307496 -0.000398763 0)
(0.307471 -0.000374324 0)
(0.307445 -0.000350421 0)
(0.307417 -0.000327054 0)
(0.307389 -0.000304224 0)
(0.307359 -0.000281928 0)
(0.307328 -0.000260168 0)
(0.307297 -0.000238939 0)
(0.307264 -0.000218242 0)
(0.30723 -0.000198075 0)
(0.307196 -0.000178434 0)
(0.30716 -0.000159317 0)
(0.307124 -0.000140723 0)
(0.307087 -0.000122646 0)
(0.307049 -0.000105085 0)
(0.30701 -8.8036e-05 0)
(0.306971 -7.14945e-05 0)
(0.30693 -5.54567e-05 0)
(0.30689 -3.99183e-05 0)
(0.306848 -2.48746e-05 0)
(0.306806 -1.0321e-05 0)
(0.306763 3.74776e-06 0)
(0.30672 1.73368e-05 0)
(0.306676 3.04516e-05 0)
(0.306632 4.30979e-05 0)
(0.306587 5.52816e-05 0)
(0.306542 6.70088e-05 0)
(0.306496 7.82856e-05 0)
(0.30645 8.91185e-05 0)
(0.306404 9.9514e-05 0)
(0.306357 0.000109479 0)
(0.30631 0.00011902 0)
(0.306263 0.000128145 0)
(0.306215 0.00013686 0)
(0.306168 0.000145174 0)
(0.30612 0.000153092 0)
(0.306072 0.000160623 0)
(0.306024 0.000167775 0)
(0.305975 0.000174554 0)
(0.305927 0.00018097 0)
(0.305879 0.000187029 0)
(0.30583 0.00019274 0)
(0.305782 0.00019811 0)
(0.305733 0.000203147 0)
(0.305685 0.00020786 0)
(0.305636 0.000212257 0)
(0.305588 0.000216345 0)
(0.30554 0.000220132 0)
(0.305492 0.000223627 0)
(0.305444 0.000226837 0)
(0.305396 0.000229771 0)
(0.305348 0.000232436 0)
(0.305301 0.00023484 0)
(0.305254 0.000236991 0)
(0.305207 0.000238897 0)
(0.30516 0.000240565 0)
(0.305113 0.000242003 0)
(0.305067 0.000243218 0)
(0.305021 0.000244219 0)
(0.304975 0.000245011 0)
(0.304929 0.000245603 0)
(0.304884 0.000246002 0)
(0.304839 0.000246213 0)
(0.304794 0.000246245 0)
(0.30475 0.000246104 0)
(0.304706 0.000245797 0)
(0.304662 0.00024533 0)
(0.304619 0.000244708 0)
(0.304576 0.000243939 0)
(0.304533 0.000243029 0)
(0.304491 0.000241982 0)
(0.304449 0.000240806 0)
(0.304407 0.000239504 0)
(0.304365 0.000238084 0)
(0.304324 0.000236549 0)
(0.304284 0.000234904 0)
(0.304243 0.000233155 0)
(0.304203 0.000231306 0)
(0.304163 0.000229362 0)
(0.304124 0.000227326 0)
(0.304085 0.000225202 0)
(0.304046 0.000222995 0)
(0.304007 0.000220708 0)
(0.303969 0.000218345 0)
(0.303931 0.000215908 0)
(0.303893 0.000213401 0)
(0.303856 0.000210826 0)
(0.303819 0.000208185 0)
(0.303781 0.000205483 0)
(0.303745 0.00020272 0)
(0.303708 0.000199898 0)
(0.303671 0.000197019 0)
(0.303635 0.000194086 0)
(0.303599 0.000191098 0)
(0.303562 0.000188059 0)
(0.303526 0.000184968 0)
(0.30349 0.000181828 0)
(0.303453 0.000178639 0)
(0.303417 0.000175403 0)
(0.30338 0.000172122 0)
(0.303343 0.000168799 0)
(0.303305 0.000165437 0)
(0.303268 0.00016204 0)
(0.303229 0.000158617 0)
(0.30319 0.000155178 0)
(0.303149 0.000151738 0)
(0.303108 0.000148321 0)
(0.303065 0.000144963 0)
(0.30302 0.000141721 0)
(0.302972 0.000138683 0)
(0.302922 0.000135995 0)
(0.302867 0.000133898 0)
(0.302807 0.000132796 0)
(0.302739 0.000133369 0)
(0.302663 0.000136895 0)
(0.302568 0.00014567 0)
(0.302447 0.000159423 0)
(0.299904 -0.00116454 0)
(0.299358 -0.00256365 0)
(0.298928 -0.0033162 0)
(0.29865 -0.00371481 0)
(0.298495 -0.00392713 0)
(0.298421 -0.00404407 0)
(0.298397 -0.00411281 0)
(0.298403 -0.0041567 0)
(0.298426 -0.00418721 0)
(0.298459 -0.00421015 0)
(0.298498 -0.00422854 0)
(0.29854 -0.004244 0)
(0.298584 -0.00425743 0)
(0.298628 -0.00426936 0)
(0.298674 -0.0042801 0)
(0.29872 -0.00428987 0)
(0.298766 -0.0042988 0)
(0.298812 -0.00430699 0)
(0.298858 -0.00431452 0)
(0.298905 -0.00432144 0)
(0.298952 -0.0043278 0)
(0.298999 -0.00433362 0)
(0.299046 -0.00433895 0)
(0.299094 -0.00434379 0)
(0.299142 -0.00434818 0)
(0.299191 -0.00435213 0)
(0.299241 -0.00435565 0)
(0.299291 -0.00435875 0)
(0.299342 -0.00436145 0)
(0.299394 -0.00436376 0)
(0.299447 -0.00436568 0)
(0.2995 -0.00436722 0)
(0.299555 -0.00436838 0)
(0.29961 -0.00436917 0)
(0.299667 -0.0043696 0)
(0.299724 -0.00436965 0)
(0.299783 -0.00436935 0)
(0.299842 -0.00436868 0)
(0.299903 -0.00436765 0)
(0.299965 -0.00436625 0)
(0.300028 -0.0043645 0)
(0.300093 -0.00436237 0)
(0.300159 -0.00435989 0)
(0.300226 -0.00435703 0)
(0.300295 -0.00435381 0)
(0.300365 -0.00435021 0)
(0.300436 -0.00434623 0)
(0.300509 -0.00434187 0)
(0.300583 -0.00433713 0)
(0.300659 -0.004332 0)
(0.300737 -0.00432647 0)
(0.300816 -0.00432055 0)
(0.300896 -0.00431422 0)
(0.300979 -0.00430749 0)
(0.301062 -0.00430033 0)
(0.301148 -0.00429276 0)
(0.301235 -0.00428476 0)
(0.301324 -0.00427632 0)
(0.301415 -0.00426744 0)
(0.301507 -0.00425812 0)
(0.301602 -0.00424834 0)
(0.301698 -0.0042381 0)
(0.301795 -0.00422739 0)
(0.301895 -0.00421621 0)
(0.301996 -0.00420454 0)
(0.302099 -0.00419238 0)
(0.302204 -0.00417973 0)
(0.302311 -0.00416657 0)
(0.302419 -0.0041529 0)
(0.302529 -0.00413872 0)
(0.302641 -0.004124 0)
(0.302755 -0.00410876 0)
(0.30287 -0.00409297 0)
(0.302987 -0.00407664 0)
(0.303106 -0.00405976 0)
(0.303227 -0.00404232 0)
(0.303349 -0.00402431 0)
(0.303472 -0.00400573 0)
(0.303598 -0.00398658 0)
(0.303725 -0.00396685 0)
(0.303853 -0.00394653 0)
(0.303983 -0.00392562 0)
(0.304114 -0.00390412 0)
(0.304247 -0.00388202 0)
(0.304381 -0.00385932 0)
(0.304516 -0.00383602 0)
(0.304652 -0.00381211 0)
(0.30479 -0.0037876 0)
(0.304929 -0.00376248 0)
(0.305068 -0.00373676 0)
(0.305209 -0.00371043 0)
(0.30535 -0.00368349 0)
(0.305493 -0.00365595 0)
(0.305636 -0.00362781 0)
(0.305779 -0.00359907 0)
(0.305923 -0.00356974 0)
(0.306068 -0.00353982 0)
(0.306213 -0.00350932 0)
(0.306358 -0.00347823 0)
(0.306504 -0.00344658 0)
(0.306649 -0.00341436 0)
(0.306795 -0.00338159 0)
(0.30694 -0.00334827 0)
(0.307086 -0.00331441 0)
(0.307231 -0.00328003 0)
(0.307376 -0.00324513 0)
(0.30752 -0.00320973 0)
(0.307664 -0.00317384 0)
(0.307807 -0.00313747 0)
(0.307949 -0.00310064 0)
(0.308091 -0.00306336 0)
(0.308231 -0.00302564 0)
(0.308371 -0.00298751 0)
(0.308509 -0.00294898 0)
(0.308646 -0.00291006 0)
(0.308782 -0.00287078 0)
(0.308916 -0.00283114 0)
(0.309049 -0.00279118 0)
(0.30918 -0.0027509 0)
(0.30931 -0.00271033 0)
(0.309438 -0.00266949 0)
(0.309564 -0.00262839 0)
(0.309688 -0.00258706 0)
(0.30981 -0.00254552 0)
(0.30993 -0.00250378 0)
(0.310048 -0.00246187 0)
(0.310164 -0.0024198 0)
(0.310277 -0.00237761 0)
(0.310388 -0.0023353 0)
(0.310497 -0.0022929 0)
(0.310603 -0.00225044 0)
(0.310707 -0.00220792 0)
(0.310808 -0.00216538 0)
(0.310907 -0.00212283 0)
(0.311003 -0.00208029 0)
(0.311096 -0.00203778 0)
(0.311187 -0.00199532 0)
(0.311275 -0.00195294 0)
(0.31136 -0.00191065 0)
(0.311442 -0.00186846 0)
(0.311521 -0.00182641 0)
(0.311598 -0.0017845 0)
(0.311671 -0.00174276 0)
(0.311742 -0.0017012 0)
(0.31181 -0.00165984 0)
(0.311874 -0.00161869 0)
(0.311936 -0.00157778 0)
(0.311995 -0.00153712 0)
(0.312051 -0.00149672 0)
(0.312104 -0.0014566 0)
(0.312154 -0.00141678 0)
(0.312201 -0.00137726 0)
(0.312245 -0.00133807 0)
(0.312287 -0.00129921 0)
(0.312325 -0.0012607 0)
(0.31236 -0.00122256 0)
(0.312393 -0.00118478 0)
(0.312422 -0.00114739 0)
(0.312449 -0.00111039 0)
(0.312473 -0.0010738 0)
(0.312494 -0.00103762 0)
(0.312512 -0.00100187 0)
(0.312528 -0.000966559 0)
(0.31254 -0.000931687 0)
(0.31255 -0.000897266 0)
(0.312557 -0.000863305 0)
(0.312562 -0.00082981 0)
(0.312564 -0.00079679 0)
(0.312563 -0.00076425 0)
(0.31256 -0.000732197 0)
(0.312554 -0.000700637 0)
(0.312546 -0.000669574 0)
(0.312535 -0.000639015 0)
(0.312522 -0.000608964 0)
(0.312506 -0.000579424 0)
(0.312488 -0.000550401 0)
(0.312468 -0.000521896 0)
(0.312445 -0.000493915 0)
(0.31242 -0.000466459 0)
(0.312393 -0.000439532 0)
(0.312364 -0.000413134 0)
(0.312332 -0.000387269 0)
(0.312299 -0.000361937 0)
(0.312264 -0.000337139 0)
(0.312226 -0.000312878 0)
(0.312187 -0.000289152 0)
(0.312146 -0.000265963 0)
(0.312102 -0.00024331 0)
(0.312058 -0.000221193 0)
(0.312011 -0.000199611 0)
(0.311963 -0.000178564 0)
(0.311912 -0.000158049 0)
(0.311861 -0.000138065 0)
(0.311808 -0.000118611 0)
(0.311753 -9.96839e-05 0)
(0.311697 -8.12817e-05 0)
(0.311639 -6.34016e-05 0)
(0.31158 -4.60406e-05 0)
(0.31152 -2.91954e-05 0)
(0.311458 -1.28625e-05 0)
(0.311396 2.96194e-06 0)
(0.311332 1.82819e-05 0)
(0.311267 3.31018e-05 0)
(0.311201 4.74261e-05 0)
(0.311134 6.12596e-05 0)
(0.311065 7.46074e-05 0)
(0.310996 8.74748e-05 0)
(0.310927 9.98672e-05 0)
(0.310856 0.00011179 0)
(0.310784 0.00012325 0)
(0.310712 0.000134253 0)
(0.310639 0.000144805 0)
(0.310566 0.000154912 0)
(0.310492 0.000164582 0)
(0.310417 0.000173821 0)
(0.310342 0.000182637 0)
(0.310266 0.000191036 0)
(0.31019 0.000199026 0)
(0.310114 0.000206614 0)
(0.310037 0.000213808 0)
(0.30996 0.000220616 0)
(0.309883 0.000227046 0)
(0.309805 0.000233105 0)
(0.309728 0.000238802 0)
(0.30965 0.000244145 0)
(0.309572 0.000249141 0)
(0.309494 0.000253799 0)
(0.309416 0.000258128 0)
(0.309339 0.000262136 0)
(0.309261 0.00026583 0)
(0.309183 0.00026922 0)
(0.309106 0.000272313 0)
(0.309028 0.000275119 0)
(0.308951 0.000277645 0)
(0.308874 0.000279899 0)
(0.308797 0.000281891 0)
(0.308721 0.000283627 0)
(0.308644 0.000285118 0)
(0.308568 0.000286369 0)
(0.308493 0.00028739 0)
(0.308418 0.000288189 0)
(0.308343 0.000288773 0)
(0.308268 0.00028915 0)
(0.308194 0.000289328 0)
(0.30812 0.000289315 0)
(0.308047 0.000289118 0)
(0.307974 0.000288744 0)
(0.307902 0.0002882 0)
(0.30783 0.000287495 0)
(0.307759 0.000286634 0)
(0.307688 0.000285625 0)
(0.307618 0.000284474 0)
(0.307548 0.000283188 0)
(0.307478 0.000281774 0)
(0.30741 0.000280237 0)
(0.307341 0.000278584 0)
(0.307273 0.000276821 0)
(0.307206 0.000274954 0)
(0.307139 0.000272989 0)
(0.307073 0.000270931 0)
(0.307007 0.000268786 0)
(0.306942 0.000266558 0)
(0.306877 0.000264254 0)
(0.306813 0.000261879 0)
(0.306749 0.000259436 0)
(0.306686 0.000256932 0)
(0.306623 0.000254371 0)
(0.30656 0.000251758 0)
(0.306498 0.000249098 0)
(0.306437 0.000246394 0)
(0.306375 0.000243652 0)
(0.306314 0.000240877 0)
(0.306254 0.000238074 0)
(0.306193 0.000235246 0)
(0.306133 0.000232401 0)
(0.306073 0.000229542 0)
(0.306013 0.000226677 0)
(0.305954 0.000223813 0)
(0.305894 0.000220956 0)
(0.305834 0.000218115 0)
(0.305775 0.000215302 0)
(0.305715 0.000212528 0)
(0.305654 0.000209809 0)
(0.305594 0.000207163 0)
(0.305533 0.000204615 0)
(0.305471 0.000202195 0)
(0.305408 0.000199943 0)
(0.305344 0.000197911 0)
(0.305279 0.000196168 0)
(0.305211 0.000194809 0)
(0.305142 0.000193961 0)
(0.30507 0.000193805 0)
(0.304995 0.000194592 0)
(0.304915 0.000196679 0)
(0.304831 0.000200573 0)
(0.30474 0.000206978 0)
(0.304641 0.000216815 0)
(0.304534 0.000231192 0)
(0.304412 0.000250913 0)
(0.304266 0.000271903 0)
(0.299938 -0.000863322 0)
(0.299548 -0.00212652 0)
(0.299128 -0.00296142 0)
(0.298779 -0.00348211 0)
(0.298529 -0.00379897 0)
(0.298365 -0.0039921 0)
(0.298265 -0.0041123 0)
(0.29821 -0.0041897 0)
(0.298188 -0.00424177 0)
(0.298187 -0.00427855 0)
(0.298202 -0.00430589 0)
(0.298227 -0.00432721 0)
(0.29826 -0.00434455 0)
(0.298298 -0.00435916 0)
(0.29834 -0.00437182 0)
(0.298386 -0.00438301 0)
(0.298434 -0.00439308 0)
(0.298484 -0.00440223 0)
(0.298536 -0.00441061 0)
(0.298589 -0.00441833 0)
(0.298643 -0.00442547 0)
(0.298699 -0.00443208 0)
(0.298757 -0.00443821 0)
(0.298815 -0.00444389 0)
(0.298875 -0.00444914 0)
(0.298935 -0.004454 0)
(0.298998 -0.00445846 0)
(0.299061 -0.00446255 0)
(0.299126 -0.00446628 0)
(0.299192 -0.00446965 0)
(0.299259 -0.00447268 0)
(0.299328 -0.00447537 0)
(0.299398 -0.00447772 0)
(0.29947 -0.00447973 0)
(0.299543 -0.00448142 0)
(0.299618 -0.00448279 0)
(0.299694 -0.00448382 0)
(0.299772 -0.00448453 0)
(0.299852 -0.00448492 0)
(0.299934 -0.00448497 0)
(0.300017 -0.0044847 0)
(0.300102 -0.0044841 0)
(0.300189 -0.00448317 0)
(0.300277 -0.0044819 0)
(0.300368 -0.00448029 0)
(0.300461 -0.00447834 0)
(0.300555 -0.00447604 0)
(0.300652 -0.00447339 0)
(0.300751 -0.00447039 0)
(0.300852 -0.00446702 0)
(0.300955 -0.00446329 0)
(0.30106 -0.00445918 0)
(0.301167 -0.00445469 0)
(0.301277 -0.00444981 0)
(0.301389 -0.00444453 0)
(0.301503 -0.00443886 0)
(0.301619 -0.00443277 0)
(0.301738 -0.00442626 0)
(0.301859 -0.00441933 0)
(0.301983 -0.00441196 0)
(0.302109 -0.00440415 0)
(0.302237 -0.00439588 0)
(0.302368 -0.00438715 0)
(0.302501 -0.00437794 0)
(0.302636 -0.00436825 0)
(0.302775 -0.00435807 0)
(0.302915 -0.00434739 0)
(0.303058 -0.00433619 0)
(0.303203 -0.00432447 0)
(0.303351 -0.00431222 0)
(0.303502 -0.00429942 0)
(0.303654 -0.00428607 0)
(0.303809 -0.00427216 0)
(0.303967 -0.00425767 0)
(0.304126 -0.0042426 0)
(0.304288 -0.00422693 0)
(0.304453 -0.00421066 0)
(0.304619 -0.00419378 0)
(0.304788 -0.00417628 0)
(0.304959 -0.00415814 0)
(0.305132 -0.00413937 0)
(0.305307 -0.00411996 0)
(0.305484 -0.00409988 0)
(0.305663 -0.00407915 0)
(0.305844 -0.00405775 0)
(0.306026 -0.00403567 0)
(0.30621 -0.00401292 0)
(0.306396 -0.00398948 0)
(0.306583 -0.00396535 0)
(0.306772 -0.00394053 0)
(0.306962 -0.00391502 0)
(0.307154 -0.00388881 0)
(0.307347 -0.0038619 0)
(0.30754 -0.00383429 0)
(0.307735 -0.00380598 0)
(0.30793 -0.00377697 0)
(0.308126 -0.00374727 0)
(0.308323 -0.00371688 0)
(0.30852 -0.0036858 0)
(0.308718 -0.00365404 0)
(0.308916 -0.0036216 0)
(0.309114 -0.00358849 0)
(0.309312 -0.00355472 0)
(0.30951 -0.00352029 0)
(0.309708 -0.00348522 0)
(0.309905 -0.00344952 0)
(0.310102 -0.00341319 0)
(0.310298 -0.00337626 0)
(0.310493 -0.00333873 0)
(0.310688 -0.00330062 0)
(0.310881 -0.00326194 0)
(0.311074 -0.00322271 0)
(0.311265 -0.00318295 0)
(0.311454 -0.00314267 0)
(0.311642 -0.0031019 0)
(0.311829 -0.00306064 0)
(0.312013 -0.00301893 0)
(0.312196 -0.00297678 0)
(0.312377 -0.00293422 0)
(0.312555 -0.00289125 0)
(0.312731 -0.00284792 0)
(0.312905 -0.00280423 0)
(0.313077 -0.00276022 0)
(0.313245 -0.0027159 0)
(0.313411 -0.0026713 0)
(0.313575 -0.00262644 0)
(0.313735 -0.00258135 0)
(0.313893 -0.00253605 0)
(0.314047 -0.00249057 0)
(0.314198 -0.00244492 0)
(0.314346 -0.00239914 0)
(0.314491 -0.00235325 0)
(0.314632 -0.00230727 0)
(0.31477 -0.00226122 0)
(0.314905 -0.00221514 0)
(0.315036 -0.00216904 0)
(0.315163 -0.00212295 0)
(0.315286 -0.00207689 0)
(0.315406 -0.00203089 0)
(0.315522 -0.00198496 0)
(0.315635 -0.00193913 0)
(0.315743 -0.00189342 0)
(0.315848 -0.00184786 0)
(0.315949 -0.00180246 0)
(0.316045 -0.00175724 0)
(0.316138 -0.00171223 0)
(0.316227 -0.00166745 0)
(0.316312 -0.0016229 0)
(0.316393 -0.00157862 0)
(0.31647 -0.00153463 0)
(0.316543 -0.00149092 0)
(0.316612 -0.00144754 0)
(0.316677 -0.00140448 0)
(0.316738 -0.00136178 0)
(0.316796 -0.00131943 0)
(0.316849 -0.00127747 0)
(0.316898 -0.0012359 0)
(0.316943 -0.00119473 0)
(0.316985 -0.00115398 0)
(0.317022 -0.00111366 0)
(0.317056 -0.00107379 0)
(0.317086 -0.00103438 0)
(0.317112 -0.000995426 0)
(0.317134 -0.000956953 0)
(0.317153 -0.000918968 0)
(0.317168 -0.000881479 0)
(0.317179 -0.000844497 0)
(0.317187 -0.000808028 0)
(0.317191 -0.000772082 0)
(0.317191 -0.000736666 0)
(0.317188 -0.000701787 0)
(0.317182 -0.000667451 0)
(0.317172 -0.000633666 0)
(0.317159 -0.000600437 0)
(0.317143 -0.000567769 0)
(0.317123 -0.000535667 0)
(0.3171 -0.000504136 0)
(0.317074 -0.000473179 0)
(0.317045 -0.000442802 0)
(0.317012 -0.000413006 0)
(0.316977 -0.000383795 0)
(0.316939 -0.000355173 0)
(0.316898 -0.000327139 0)
(0.316854 -0.000299698 0)
(0.316807 -0.00027285 0)
(0.316758 -0.000246596 0)
(0.316706 -0.000220938 0)
(0.316651 -0.000195875 0)
(0.316594 -0.000171409 0)
(0.316535 -0.000147538 0)
(0.316473 -0.000124262 0)
(0.316408 -0.00010158 0)
(0.316342 -7.9491e-05 0)
(0.316273 -5.79936e-05 0)
(0.316202 -3.70859e-05 0)
(0.316129 -1.67655e-05 0)
(0.316054 2.96993e-06 0)
(0.315978 2.21233e-05 0)
(0.315899 4.06979e-05 0)
(0.315818 5.86969e-05 0)
(0.315736 7.61243e-05 0)
(0.315652 9.29841e-05 0)
(0.315566 0.000109281 0)
(0.315479 0.000125019 0)
(0.315391 0.000140203 0)
(0.315301 0.000154839 0)
(0.315209 0.000168933 0)
(0.315117 0.000182489 0)
(0.315023 0.000195514 0)
(0.314928 0.000208015 0)
(0.314832 0.000219999 0)
(0.314735 0.000231471 0)
(0.314637 0.000242439 0)
(0.314538 0.000252911 0)
(0.314438 0.000262893 0)
(0.314337 0.000272395 0)
(0.314236 0.000281423 0)
(0.314134 0.000289987 0)
(0.314032 0.000298094 0)
(0.313929 0.000305753 0)
(0.313825 0.000312972 0)
(0.313722 0.000319761 0)
(0.313617 0.000326129 0)
(0.313513 0.000332084 0)
(0.313408 0.000337636 0)
(0.313303 0.000342795 0)
(0.313198 0.000347569 0)
(0.313093 0.000351969 0)
(0.312988 0.000356003 0)
(0.312882 0.000359682 0)
(0.312777 0.000363016 0)
(0.312672 0.000366013 0)
(0.312567 0.000368684 0)
(0.312462 0.000371038 0)
(0.312358 0.000373085 0)
(0.312253 0.000374835 0)
(0.312149 0.000376298 0)
(0.312046 0.000377483 0)
(0.311942 0.000378399 0)
(0.311839 0.000379057 0)
(0.311737 0.000379466 0)
(0.311634 0.000379634 0)
(0.311533 0.000379572 0)
(0.311432 0.000379289 0)
(0.311331 0.000378793 0)
(0.311231 0.000378095 0)
(0.311131 0.000377201 0)
(0.311032 0.000376123 0)
(0.310934 0.000374867 0)
(0.310836 0.000373443 0)
(0.310739 0.000371859 0)
(0.310642 0.000370123 0)
(0.310546 0.000368243 0)
(0.310451 0.000366229 0)
(0.310357 0.000364086 0)
(0.310263 0.000361824 0)
(0.310169 0.000359449 0)
(0.310077 0.00035697 0)
(0.309985 0.000354393 0)
(0.309894 0.000351726 0)
(0.309803 0.000348977 0)
(0.309713 0.000346152 0)
(0.309624 0.000343259 0)
(0.309535 0.000340304 0)
(0.309447 0.000337296 0)
(0.30936 0.000334239 0)
(0.309273 0.000331143 0)